ITEM: TIMESTEP
88200
ITEM: NUMBER OF ATOMS
750
ITEM: BOX BOUNDS pp pp pp
1.0070008579520209e+01 2.9929991420480043e+01
1.0070008579520209e+01 2.9929991420480043e+01
1.0070008579520209e+01 2.9929991420480043e+01
ITEM: ATOMS id type xs ys zs
31 1 0.283038 0.085294 0.135611
32 2 0.271387 0.0349675 0.131919
595 1 0.259855 0.131465 0.26652
596 2 0.218601 0.157847 0.250687
63 2 0.232446 0.152821 0.114432
62 2 0.167271 0.150272 0.0688371
61 1 0.196102 0.182395 0.0951848
650 2 0.0630188 0.188755 0.0158373
597 2 0.275203 0.11224 0.220598
349 1 0.315197 0.284075 0.227531
649 1 0.0338336 0.180591 0.0567581
17 2 0.112405 0.20842 0.210242
236 2 0.00567624 0.297616 0.0262522
252 2 0.170178 0.242417 0.0392345
293 2 0.228743 0.324619 0.147233
350 2 0.315005 0.246924 0.26208
16 1 0.15178 0.212811 0.243916
18 2 0.174155 0.256572 0.22863
259 1 0.12105 0.0773316 0.0126506
714 2 0.31688 0.204632 0.0330815
261 2 0.0859863 0.0990107 0.0427589
33 2 0.334527 0.0812677 0.133301
428 2 0.480189 0.0609353 0.152673
427 1 0.429196 0.0638914 0.156408
738 2 0.408731 0.217053 0.0891692
736 1 0.416031 0.207437 0.139417
351 2 0.348722 0.267882 0.192185
6 2 0.615712 0.190584 0.134041
5 2 0.622734 0.133957 0.0721499
673 1 0.465416 0.181628 0.286457
674 2 0.452221 0.181421 0.236825
4 1 0.593017 0.16701 0.0956663
326 2 0.635127 0.252282 0.253732
675 2 0.427331 0.211892 0.303934
325 1 0.612815 0.211168 0.233095
327 2 0.562841 0.217204 0.243666
275 2 0.569231 0.0542335 0.245415
153 2 0.533938 0.15029 0.0410374
151 1 0.506082 0.138033 0.000200048
274 1 0.565697 0.0651114 0.196353
276 2 0.588801 0.108775 0.185141
737 2 0.395197 0.160129 0.1388
191 2 0.473744 0.0541482 0.00762625
190 1 0.457016 0.0109065 0.0279385
720 2 0.664344 0.160727 0.278269
393 2 0.499241 0.330322 0.315049
179 2 0.53593 0.282446 0.169658
180 2 0.522913 0.258799 0.0916742
178 1 0.53067 0.298837 0.121644
78 2 0.365044 0.0393572 0.00475486
452 2 0.469236 0.00764256 0.325053
429 2 0.415678 0.0471177 0.202054
381 2 0.625081 0.0520171 0.33248
379 1 0.581152 0.0253933 0.327117
712 1 0.35582 0.235258 0.0205444
651 2 0.991767 0.208285 0.0459227
52 1 0.980199 0.232784 0.258848
235 1 0.954845 0.293697 0.0311461
266 2 0.788984 0.094721 0.192757
265 1 0.749048 0.0746673 0.167495
54 2 0.972662 0.28295 0.259303
696 2 0.981077 0.119293 0.144852
267 2 0.77075 0.0643223 0.122111
308 2 0.754855 0.302268 0.114743
307 1 0.781906 0.259464 0.111672
43 1 0.850672 0.197795 0.219243
45 2 0.80802 0.204654 0.247148
165 2 0.730091 0.0837716 0.0334099
53 2 0.937204 0.216616 0.233789
229 1 0.746177 0.26517 0.325178
718 1 0.697576 0.123628 0.293261
719 2 0.706163 0.0984471 0.249458
694 1 0.937224 0.0991366 0.126638
695 2 0.901829 0.131545 0.144805
309 2 0.806322 0.262359 0.0667424
670 1 0.818631 0.0508524 0.0401863
44 2 0.833286 0.217675 0.174363
672 2 0.85532 0.0241585 0.0156634
671 2 0.820929 0.0964252 0.0168839
587 2 0.978184 0.0187163 0.0940494
161 2 0.959214 0.07671 0.240045
160 1 0.966626 0.0702272 0.289867
162 2 0.921849 0.0852647 0.310684
163 1 0.684602 0.0890084 0.00998665
314 2 0.132235 0.379924 0.229722
294 2 0.160543 0.36449 0.121999
292 1 0.182912 0.340719 0.159141
303 2 0.154306 0.590203 0.132078
678 2 0.322821 0.517014 0.242604
676 1 0.302343 0.56384 0.236914
677 2 0.253947 0.551895 0.222233
315 2 0.116611 0.457797 0.260614
313 1 0.107005 0.408732 0.263093
302 2 0.123034 0.569304 0.205477
301 1 0.167801 0.575571 0.180211
123 2 0.297091 0.645379 0.204874
535 1 0.322533 0.426352 0.256962
537 2 0.330549 0.375693 0.254647
749 2 0.00689854 0.607637 0.234643
748 1 0.045771 0.580985 0.255378
335 2 0.138838 0.586086 0.00915837
334 1 0.120948 0.610416 0.0495952
110 2 0.109167 0.353313 0.00228898
436 1 0.20405 0.461283 0.0364959
437 2 0.159259 0.484079 0.0419965
239 2 0.285442 0.501276 0.0468636
378 2 0.331036 0.581726 0.0224489
270 2 0.00455096 0.415186 0.0584069
750 2 0.0720685 0.622615 0.270984
336 2 0.158137 0.639844 0.0664902
536 2 0.312682 0.429718 0.307793
228 2 0.0382494 0.417115 0.320227
376 1 0.31004 0.626425 0.00432514
253 1 0.595774 0.415838 0.165979
392 2 0.508664 0.390176 0.257821
391 1 0.50812 0.339867 0.265601
255 2 0.609275 0.433624 0.120573
238 1 0.336668 0.502548 0.0506071
621 2 0.574908 0.483478 0.21996
492 2 0.440802 0.393464 0.100888
619 1 0.552835 0.525348 0.2384
620 2 0.505568 0.523026 0.217203
240 2 0.352177 0.4558 0.0635619
199 1 0.631329 0.505365 0.0655681
200 2 0.596544 0.540305 0.0799135
669 2 0.442413 0.662822 0.211936
668 2 0.488459 0.616253 0.256479
667 1 0.449631 0.650537 0.261409
457 1 0.443986 0.536308 0.158404
458 2 0.46633 0.53844 0.111375
459 2 0.396144 0.521312 0.145126
254 2 0.5698 0.372225 0.159929
181 1 0.505294 0.587144 0.0490293
183 2 0.477452 0.618395 0.0787535
219 2 0.348051 0.655508 0.315082
491 2 0.401132 0.333893 0.0721748
490 1 0.407797 0.384388 0.062173
201 2 0.609974 0.491156 0.020873
182 2 0.492396 0.605482 0.00256856
377 2 0.352761 0.653697 0.0146389
237 2 0.940455 0.335637 0.0553831
146 2 0.669876 0.552915 0.260176
145 1 0.719633 0.557732 0.268847
268 1 0.960086 0.419689 0.0832251
355 1 0.766005 0.361643 0.0174959
357 2 0.781336 0.40652 0.0389921
89 2 0.820102 0.553473 0.189699
88 1 0.848006 0.595613 0.17706
90 2 0.892083 0.575933 0.196868
269 2 0.967431 0.435435 0.131076
216 2 0.994921 0.51125 0.222311
215 2 0.955513 0.450987 0.255005
214 1 0.953456 0.481091 0.213559
354 2 0.929574 0.477438 0.0253918
646 1 0.899081 0.663652 0.00503485
147 2 0.734611 0.591743 0.235019
564 2 0.721538 0.503058 0.0466717
562 1 0.768295 0.501745 0.0249121
353 2 0.855054 0.510169 0.0150214
648 2 0.936867 0.632908 0.0170478
213 2 0.211006 0.952541 0.125297
211 1 0.258322 0.950869 0.10877
77 2 0.294321 0.997684 0.0225761
550 1 0.113643 0.941208 0.140328
552 2 0.109851 0.932219 0.190168
122 2 0.308845 0.71511 0.246722
121 1 0.311383 0.695136 0.200165
726 2 0.235461 0.692317 0.130564
724 1 0.219622 0.693557 0.0832237
166 1 0.277899 0.837677 0.17873
476 2 0.0994566 0.821016 0.299961
212 2 0.276295 0.905204 0.122202
475 1 0.130801 0.832824 0.261285
281 2 0.208575 0.897828 0.0366869
725 2 0.255766 0.677152 0.0524831
280 1 0.206451 0.857157 0.00717941
477 2 0.121095 0.792596 0.231298
661 1 0.09782 0.75518 0.144311
662 2 0.099854 0.798159 0.116422
167 2 0.311009 0.798398 0.173843
168 2 0.256405 0.827385 0.225246
598 1 0.267109 0.766662 0.325369
66 2 0.282089 0.810442 4.72313e-05
64 1 0.324724 0.78486 0.00167929
551 2 0.0699931 0.966117 0.131948
663 2 0.144532 0.735854 0.135442
174 2 0.0410366 0.699719 0.202134
193 1 0.124161 0.709481 0.316488
194 2 0.175318 0.708961 0.318247
192 2 0.486115 0.971306 0.0140757
258 2 0.662612 0.755865 0.243702
264 2 0.416003 0.715896 0.0664824
453 2 0.406834 0.950916 0.31135
451 1 0.430942 0.993086 0.29559
594 2 0.454065 0.710618 0.317266
263 2 0.378257 0.715348 0.138056
262 1 0.421173 0.700299 0.115071
203 2 0.55074 0.875271 0.321508
533 2 0.573747 0.865361 0.160416
532 1 0.592436 0.91165 0.175564
534 2 0.556889 0.945493 0.163721
488 2 0.441732 0.826924 0.111646
561 2 0.544936 0.783286 0.192007
560 2 0.485325 0.753419 0.148296
559 1 0.505992 0.798169 0.161461
487 1 0.406674 0.850622 0.0837685
256 1 0.639428 0.74718 0.198269
65 2 0.354014 0.806494 0.0374696
318 2 0.638684 0.805905 0.0573379
317 2 0.574564 0.753622 0.0719831
316 1 0.58893 0.797411 0.0508195
489 2 0.407369 0.900389 0.0963572
360 2 0.551064 0.870272 0.00117922
682 1 0.722641 0.765077 0.303468
721 1 0.888388 0.713238 0.125958
723 2 0.863859 0.669876 0.142723
257 2 0.680415 0.738226 0.169455
439 1 0.699154 0.88505 0.0343771
441 2 0.701707 0.907996 0.0802187
588 2 0.94414 0.943193 0.113269
586 1 0.984459 0.970242 0.106503
684 2 0.755538 0.798928 0.324919
549 2 0.774735 0.745432 0.213503
87 2 0.675156 0.948481 0.189199
85 1 0.723768 0.94947 0.206469
86 2 0.740305 0.997924 0.206823
647 2 0.879236 0.679216 0.0494704
425 2 0.86254 0.83276 0.151299
547 1 0.770698 0.759714 0.163981
548 2 0.814765 0.740826 0.146088
426 2 0.816609 0.894946 0.17099
424 1 0.865405 0.883714 0.161034
400 1 0.78853 0.890699 0.33252
401 2 0.835328 0.909542 0.319514
402 2 0.763109 0.913936 0.293789
485 2 0.868676 0.887335 0.0768737
484 1 0.884724 0.882538 0.0294985
486 2 0.897084 0.928058 0.0111095
412 1 0.923785 0.927419 0.321171
413 2 0.943617 0.973145 0.33305
173 2 0.982923 0.723016 0.249602
172 1 0.990225 0.691725 0.209073
722 2 0.927029 0.715742 0.160212
440 2 0.743388 0.888628 0.0118286
610 1 0.979844 0.757017 0.326503
414 2 0.936479 0.916288 0.273727
645 2 0.950557 0.815571 0.00750144
345 2 0.0978575 0.139512 0.37237
687 2 0.298309 0.0789324 0.339686
37 1 0.200416 0.161357 0.525345
38 2 0.195231 0.125654 0.490263
685 1 0.327885 0.0627785 0.378668
208 1 0.179493 0.0273839 0.458036
210 2 0.14048 0.0504407 0.434676
209 2 0.216827 0.0351433 0.425013
7 1 0.311092 0.148859 0.596081
124 1 0.119685 0.314706 0.36769
150 2 0.0405164 0.0710763 0.530201
148 1 0.0736016 0.0338245 0.542999
39 2 0.242141 0.146043 0.553469
69 2 0.10209 0.196975 0.526236
689 2 0.218625 0.232547 0.467146
295 1 0.172595 0.266425 0.643921
338 2 0.142998 0.0189926 0.63539
149 2 0.112802 0.0386007 0.510275
3 2 0.305835 0.206764 0.400033
130 1 0.0045286 0.282328 0.6461
132 2 0.026031 0.261716 0.60403
68 2 0.0344602 0.222114 0.493397
67 1 0.058508 0.221776 0.539256
131 2 0.0425671 0.315801 0.657233
125 2 0.0792768 0.295436 0.345189
688 1 0.227217 0.264715 0.428962
690 2 0.183784 0.286984 0.414089
343 1 0.0945305 0.0898743 0.366447
344 2 0.0496301 0.0811052 0.343359
297 2 0.191615 0.244591 0.603487
686 2 0.374497 0.0567815 0.359444
57 2 0.429977 0.0412834 0.472904
9 2 0.337281 0.191649 0.607363
2 2 0.361693 0.14902 0.419498
1 1 0.356358 0.198394 0.406672
8 2 0.342143 0.111867 0.611263
99 2 0.415997 0.250034 0.659883
243 2 0.477801 0.121108 0.359522
242 2 0.526485 0.0986229 0.420419
241 1 0.477305 0.0947687 0.404521
652 1 0.526087 0.0504957 0.654444
286 1 0.568606 0.271886 0.488231
287 2 0.607185 0.239 0.487237
288 2 0.586959 0.313577 0.511678
419 2 0.626093 0.11237 0.482935
500 2 0.426255 0.264466 0.412761
380 2 0.566625 0.0200362 0.375821
418 1 0.600363 0.079758 0.452972
653 2 0.516196 0.015603 0.619541
501 2 0.506451 0.274234 0.42511
499 1 0.467436 0.291138 0.396311
420 2 0.626636 0.0363775 0.455687
375 2 0.554661 0.272241 0.659891
94 1 0.520502 0.18919 0.615842
95 2 0.519695 0.143881 0.639934
96 2 0.538593 0.179015 0.569811
104 2 0.640524 0.175013 0.604805
103 1 0.666305 0.166371 0.562155
386 2 0.474136 0.276376 0.572225
385 1 0.444119 0.317317 0.580475
231 2 0.72272 0.305381 0.347678
230 2 0.794754 0.270957 0.339622
740 2 0.897278 0.3121 0.379384
739 1 0.861146 0.292153 0.408787
637 1 0.841019 0.108885 0.348929
639 2 0.837006 0.093603 0.398205
417 2 0.960185 0.144148 0.478521
415 1 0.94957 0.11062 0.515531
416 2 0.901104 0.0995171 0.508025
177 2 0.972634 0.200665 0.642252
176 2 0.954867 0.137266 0.595353
175 1 0.953802 0.153456 0.644358
329 2 0.708255 0.20028 0.396305
330 2 0.77124 0.216207 0.44134
328 1 0.738663 0.177343 0.431586
697 1 0.975266 0.20071 0.41931
698 2 0.979668 0.188477 0.372283
283 1 0.849349 0.303439 0.635305
496 1 0.745911 0.292687 0.534125
497 2 0.766905 0.291639 0.580372
699 2 0.945712 0.235693 0.437701
272 2 0.704425 0.0230302 0.610833
623 2 0.774287 0.115393 0.478675
622 1 0.811087 0.0799216 0.489655
624 2 0.781729 0.0384679 0.498797
105 2 0.702663 0.202129 0.556326
567 2 0.838342 0.139622 0.634515
741 2 0.835617 0.333107 0.427651
284 2 0.885532 0.277841 0.612835
638 2 0.802309 0.140913 0.341959
566 2 0.816014 0.210956 0.662481
565 1 0.796309 0.168969 0.640395
589 1 0.867442 0.0162945 0.622011
590 2 0.818355 0.0198436 0.60816
119 2 0.126855 0.352729 0.538142
120 2 0.093753 0.415237 0.495631
304 1 0.219214 0.639211 0.442789
118 1 0.1364 0.390822 0.506022
126 2 0.118553 0.364457 0.364508
310 1 0.0506707 0.659912 0.448923
312 2 0.0790509 0.623334 0.473231
368 2 0.262347 0.355095 0.405385
369 2 0.258273 0.437909 0.423996
367 1 0.282845 0.401526 0.400272
220 1 0.0888985 0.567547 0.537786
221 2 0.131244 0.56754 0.566585
222 2 0.0582105 0.533239 0.561939
306 2 0.212727 0.589322 0.455107
305 2 0.268532 0.633975 0.427817
557 2 0.243976 0.566343 0.585877
625 1 0.23572 0.498095 0.523499
626 2 0.199386 0.462816 0.515252
627 2 0.274331 0.472406 0.545827
80 2 0.0353484 0.528474 0.391847
81 2 0.0544174 0.519218 0.468035
601 1 0.295687 0.397155 0.604685
603 2 0.313947 0.394635 0.652982
473 2 0.0290035 0.624648 0.655302
217 1 0.331764 0.626727 0.353187
79 1 0.0514366 0.492609 0.424717
399 2 0.0216897 0.420389 0.596576
556 1 0.239613 0.596114 0.627312
558 2 0.280189 0.626859 0.62427
493 1 0.0960166 0.385615 0.653046
494 2 0.141066 0.361781 0.650558
746 2 0.634147 0.368273 0.387433
602 2 0.33369 0.380042 0.574985
218 2 0.335384 0.578658 0.33663
365 2 0.632671 0.403089 0.565947
364 1 0.583485 0.387124 0.558944
366 2 0.564911 0.419695 0.595253
387 2 0.474981 0.357776 0.571072
383 2 0.554611 0.43137 0.492993
382 1 0.556859 0.464812 0.45294
384 2 0.510002 0.457255 0.431927
445 1 0.424098 0.415763 0.463125
446 2 0.37679 0.420756 0.443673
447 2 0.435697 0.369021 0.44657
333 2 0.558078 0.602936 0.521362
658 1 0.579156 0.615959 0.650064
660 2 0.549737 0.658005 0.645939
291 2 0.438597 0.626422 0.528528
290 2 0.41816 0.603462 0.604502
289 1 0.453275 0.596184 0.567934
715 1 0.509166 0.491689 0.632422
717 2 0.475923 0.515298 0.601678
716 2 0.54734 0.525143 0.639517
408 2 0.627299 0.658616 0.429346
331 1 0.595898 0.592516 0.489778
332 2 0.585632 0.544836 0.473499
512 2 0.392207 0.644623 0.423811
374 2 0.602052 0.340386 0.657003
514 1 0.36117 0.649803 0.652132
745 1 0.684631 0.37019 0.382021
747 2 0.697495 0.419023 0.376992
498 2 0.763957 0.33385 0.510724
227 2 0.988114 0.434066 0.38198
226 1 0.989703 0.411624 0.335826
527 2 0.819186 0.440066 0.520672
530 2 0.858069 0.529843 0.629938
531 2 0.886129 0.546869 0.554152
529 1 0.87032 0.50965 0.584104
277 1 0.717837 0.505827 0.395229
278 2 0.725244 0.532904 0.35202
279 2 0.67547 0.527911 0.412261
541 1 0.719718 0.584156 0.561019
528 2 0.779859 0.459619 0.45415
543 2 0.751956 0.5948 0.523022
542 2 0.671413 0.584481 0.541129
409 1 0.682114 0.449669 0.626894
410 2 0.692741 0.496903 0.610675
526 1 0.788283 0.418586 0.485289
225 2 0.920585 0.631254 0.566739
223 1 0.915944 0.626937 0.51692
398 2 0.946499 0.45358 0.597018
472 1 0.97792 0.625009 0.653361
397 1 0.995303 0.460889 0.582787
224 2 0.960637 0.636168 0.494778
113 2 0.325518 0.895734 0.386342
311 2 0.0560928 0.697264 0.483396
195 2 0.114234 0.701419 0.365381
693 2 0.319216 0.918576 0.520311
632 2 0.0542596 0.904555 0.505123
692 2 0.257292 0.956694 0.49075
691 1 0.285968 0.916542 0.481516
321 2 0.0786622 0.787526 0.532915
319 1 0.0790604 0.746046 0.563365
600 2 0.236755 0.801258 0.347772
599 2 0.282262 0.734364 0.360766
320 2 0.0367791 0.748592 0.591946
554 2 0.221428 0.780083 0.487478
144 2 0.175112 0.717406 0.55631
142 1 0.215053 0.742652 0.576215
143 2 0.213297 0.726394 0.625042
701 2 0.200545 0.895782 0.55785
631 1 0.0804063 0.862042 0.49882
633 2 0.115832 0.862833 0.462638
434 2 0.10722 0.894918 0.645095
553 1 0.205727 0.808494 0.44828
555 2 0.232562 0.851594 0.448079
435 2 0.0240689 0.903991 0.639106
702 2 0.188081 0.830177 0.60642
700 1 0.187204 0.880386 0.603337
101 2 0.321121 0.965604 0.640803
707 2 0.00398718 0.982263 0.540001
112 1 0.364571 0.888023 0.356059
114 2 0.376649 0.838803 0.352452
202 1 0.551553 0.839239 0.357893
593 2 0.483002 0.779634 0.347453
592 1 0.44311 0.747065 0.352159
55 1 0.410228 0.994623 0.480365
56 2 0.383669 0.989927 0.436569
204 2 0.601191 0.837176 0.371346
444 2 0.50364 0.862495 0.555269
513 2 0.432651 0.707983 0.428982
511 1 0.411312 0.674115 0.462238
442 1 0.520416 0.906954 0.571988
443 2 0.526275 0.899262 0.622657
504 2 0.58532 0.922143 0.518102
540 2 0.43613 0.759633 0.610839
538 1 0.403591 0.778265 0.576975
539 2 0.422712 0.764503 0.532056
571 1 0.37416 0.907734 0.614148
572 2 0.412046 0.922305 0.581509
573 2 0.387228 0.859035 0.62333
503 2 0.641896 0.91719 0.458479
502 1 0.625336 0.945558 0.497063
683 2 0.708783 0.733578 0.343436
406 1 0.671254 0.673628 0.408018
612 2 0.952612 0.795789 0.344113
246 2 0.705618 0.81964 0.439319
244 1 0.687872 0.860937 0.416705
245 2 0.730543 0.880758 0.395752
407 2 0.697281 0.689493 0.448862
522 2 0.668441 0.754709 0.573819
520 1 0.695167 0.74845 0.530344
521 2 0.741158 0.752725 0.553835
479 2 0.847179 0.770108 0.522638
478 1 0.838797 0.784754 0.571012
480 2 0.883649 0.777896 0.593958
706 1 0.974046 0.942724 0.529834
708 2 0.92594 0.956398 0.535963
170 2 0.784299 0.840811 0.625777
171 2 0.771099 0.922341 0.6276
169 1 0.765157 0.878834 0.653961
271 1 0.730478 0.991273 0.581518
273 2 0.695794 0.974032 0.546923
611 2 0.981734 0.725273 0.367164
107 2 0.956516 0.707918 0.65476
106 1 0.953039 0.760354 0.657385
42 2 0.923131 0.878424 0.450815
40 1 0.910832 0.840729 0.4181
41 2 0.891667 0.863378 0.377143
260 2 0.101584 0.0376507 0.988115
251 2 0.183075 0.244494 0.956843
76 1 0.31623 0.0342927 0.99455
585 2 0.0818997 0.184402 0.879593
518 2 0.106085 0.124171 0.678452
519 2 0.142693 0.160568 0.742396
517 1 0.0977956 0.155038 0.718533
483 2 0.0888819 0.0265718 0.84272
296 2 0.155025 0.232567 0.676543
583 1 0.0618327 0.211189 0.917266
584 2 0.102842 0.22765 0.943588
371 2 0.206743 0.179037 0.889357
370 1 0.19966 0.217549 0.8542
372 2 0.21861 0.193111 0.813064
93 2 0.266083 0.0985477 0.971717
91 1 0.227945 0.127443 0.956199
92 2 0.187549 0.109672 0.982246
34 1 0.183623 0.0234929 0.815016
36 2 0.222964 0.0482033 0.837503
731 2 0.330115 0.0889377 0.847994
569 2 0.0179811 0.329288 0.84511
506 2 0.251814 0.282008 0.871801
732 2 0.319672 0.0333152 0.906804
730 1 0.31736 0.0403782 0.855894
396 2 0.0178719 0.139623 0.764364
606 2 0.266771 0.11321 0.695407
605 2 0.277209 0.186528 0.730304
604 1 0.263198 0.138666 0.740156
507 2 0.305421 0.318906 0.918333
481 1 0.0475864 0.0527773 0.857395
482 2 0.00910678 0.0347434 0.829397
250 1 0.160954 0.266748 0.995525
21 2 0.128134 0.292157 0.85058
505 1 0.277207 0.326024 0.876361
35 2 0.18482 0.0367736 0.765975
337 1 0.169109 0.0412571 0.673073
339 2 0.216134 0.0205678 0.671904
152 2 0.536845 0.143053 0.960893
116 2 0.48519 0.325131 0.859291
654 2 0.503775 0.0359377 0.698185
97 1 0.39762 0.238013 0.705941
728 2 0.362073 0.212908 0.834181
713 2 0.363164 0.224643 0.970756
71 2 0.550116 0.150069 0.798455
455 2 0.379429 0.00515428 0.72234
454 1 0.427121 0.00426976 0.738979
456 2 0.431415 0.00298115 0.790249
727 1 0.369553 0.177575 0.871634
729 2 0.410955 0.155085 0.850477
98 2 0.393035 0.284048 0.727935
72 2 0.511442 0.196497 0.847139
70 1 0.520305 0.145926 0.839798
657 2 0.606062 0.239584 0.755384
373 1 0.576443 0.308534 0.688746
117 2 0.481407 0.30521 0.939338
115 1 0.489061 0.287553 0.892174
656 2 0.648258 0.19201 0.810745
655 1 0.63133 0.196193 0.762701
640 1 0.465345 0.00413702 0.873058
641 2 0.490739 0.0489055 0.871539
464 2 0.65442 0.113176 0.700437
137 2 0.657609 0.00202334 0.742203
546 2 0.648123 0.23273 0.921873
138 2 0.627128 0.0292608 0.812662
471 2 0.973295 0.0299773 0.951287
469 1 0.92989 0.00534473 0.963186
470 2 0.906514 0.000379704 0.917567
570 2 0.99 0.265832 0.883018
164 2 0.678898 0.0508249 0.97747
545 2 0.688138 0.164612 0.931498
544 1 0.671253 0.195709 0.894164
523 1 0.853203 0.229175 0.78933
524 2 0.902644 0.244136 0.787912
525 2 0.858186 0.178004 0.79332
463 1 0.695093 0.0819831 0.700403
465 2 0.728236 0.113278 0.675866
394 1 0.967645 0.143076 0.77474
591 2 0.867389 0.0117971 0.672711
404 2 0.903098 0.113188 0.836304
403 1 0.858941 0.10055 0.8586
405 2 0.834399 0.0763393 0.820462
323 2 0.757719 0.0335439 0.741264
322 1 0.806251 0.0258096 0.757519
395 2 0.948552 0.150182 0.727664
186 2 0.733311 0.283821 0.719848
185 2 0.792858 0.305328 0.768702
184 1 0.744952 0.317613 0.756141
568 1 0.975639 0.300758 0.847997
140 2 0.880552 0.196519 0.981223
139 1 0.839448 0.168438 0.97701
141 2 0.836196 0.152765 0.927962
361 1 0.849735 0.329567 0.916569
363 2 0.831674 0.298938 0.878623
362 2 0.899978 0.330689 0.906131
438 2 0.205252 0.44288 0.989456
109 1 0.0640546 0.378183 0.999376
744 2 0.202094 0.530672 0.920347
462 2 0.234887 0.402315 0.875133
461 2 0.24659 0.482296 0.869172
460 1 0.221674 0.446736 0.896149
705 2 0.159196 0.634055 0.680484
703 1 0.112956 0.635622 0.700272
704 2 0.117421 0.631403 0.751107
495 2 0.103841 0.423298 0.687031
742 1 0.196264 0.576192 0.943279
28 1 0.0686782 0.492388 0.782909
30 2 0.0718891 0.494641 0.834217
29 2 0.0196036 0.507619 0.779548
19 1 0.119062 0.340496 0.854388
20 2 0.120537 0.364259 0.809546
634 1 0.283169 0.517208 0.793129
743 2 0.245728 0.58981 0.952095
613 1 0.13302 0.666203 0.834504
74 2 0.0712719 0.653355 0.980676
579 2 0.332471 0.396858 0.782228
635 2 0.252604 0.539052 0.759987
636 2 0.329165 0.538642 0.793864
111 2 0.0592603 0.397072 0.952119
614 2 0.163582 0.639429 0.868277
510 2 0.00658092 0.65347 0.858295
234 2 0.462841 0.46122 0.718507
51 2 0.632941 0.389291 0.95851
659 2 0.61654 0.622836 0.683419
389 2 0.542658 0.456771 0.934861
49 1 0.642496 0.340385 0.96879
232 1 0.473315 0.463921 0.768149
233 2 0.522695 0.455445 0.775258
735 2 0.641716 0.436606 0.761496
733 1 0.595938 0.421225 0.780292
734 2 0.598719 0.371375 0.767355
577 1 0.366485 0.37368 0.752052
578 2 0.411912 0.392421 0.765575
515 2 0.365073 0.612595 0.686967
388 1 0.592153 0.457841 0.924752
46 1 0.403464 0.585279 0.786405
59 2 0.438287 0.421562 0.978964
390 2 0.598159 0.457242 0.873545
48 2 0.437494 0.545879 0.783781
47 2 0.431952 0.624385 0.801016
629 2 0.549853 0.660242 0.858733
58 1 0.443351 0.439271 0.931201
60 2 0.422461 0.483885 0.921077
679 1 0.64638 0.620887 0.86247
680 2 0.660997 0.65934 0.893347
356 2 0.805921 0.350335 0.986342
285 2 0.86053 0.337667 0.668878
411 2 0.695657 0.45169 0.676842
155 2 0.780343 0.545638 0.67927
50 2 0.69306 0.343041 0.980824
664 1 0.977169 0.449805 0.90735
665 2 0.95199 0.484915 0.934033
474 2 0.963779 0.603066 0.696942
299 2 0.766407 0.461513 0.790367
22 1 0.787511 0.477382 0.875917
24 2 0.807365 0.432611 0.887272
298 1 0.741588 0.450762 0.746235
300 2 0.733246 0.400105 0.755574
666 2 0.94582 0.43573 0.870131
133 1 0.903366 0.386515 0.747276
563 2 0.758697 0.510837 0.974871
134 2 0.933349 0.413235 0.719167
135 2 0.92817 0.343553 0.759676
14 2 0.915348 0.584615 0.797625
13 1 0.922557 0.544046 0.767038
352 1 0.901583 0.50744 0.994827
156 2 0.791546 0.620134 0.70378
154 1 0.817822 0.577815 0.690286
23 2 0.817021 0.516879 0.888864
15 2 0.877195 0.543095 0.740927
681 2 0.681143 0.584659 0.877161
466 1 0.835495 0.606527 0.887844
468 2 0.86131 0.611249 0.931057
467 2 0.842652 0.651381 0.863926
508 1 0.976948 0.663289 0.81601
282 2 0.159066 0.848042 0.991132
433 1 0.0625987 0.892066 0.66877
615 2 0.100116 0.682406 0.872023
73 1 0.045333 0.673474 0.940825
75 2 0.0123271 0.707321 0.962704
609 2 0.0404001 0.830829 0.935603
608 2 0.102299 0.861761 0.895064
607 1 0.0901372 0.839445 0.940291
10 1 0.115997 0.904202 0.822111
11 2 0.14564 0.945414 0.819811
12 2 0.101388 0.891498 0.775524
618 2 0.286108 0.826178 0.91029
617 2 0.210377 0.846854 0.885459
616 1 0.25531 0.827964 0.870107
205 1 0.068123 0.762799 0.743207
206 2 0.101519 0.723719 0.743973
188 2 0.256764 0.797887 0.688795
187 1 0.226602 0.770845 0.717904
189 2 0.232194 0.782935 0.766722
207 2 0.0936242 0.79561 0.712023
422 2 0.272884 0.898609 0.812186
100 1 0.292972 0.998244 0.671862
102 2 0.278791 0.959153 0.703247
423 2 0.322538 0.963367 0.813391
421 1 0.311388 0.920145 0.786898
509 2 0.013464 0.672946 0.781672
346 1 0.539413 0.754824 0.671085
128 2 0.413114 0.852229 0.716925
347 2 0.589345 0.758414 0.685174
628 1 0.504459 0.680684 0.845055
83 2 0.396418 0.730468 0.959565
82 1 0.435503 0.699373 0.974308
642 2 0.470341 0.986107 0.919976
358 1 0.537449 0.904565 0.965167
516 2 0.359678 0.694476 0.676184
127 1 0.391391 0.8147 0.744008
129 2 0.344698 0.831736 0.755667
348 2 0.524816 0.802783 0.684674
630 2 0.516661 0.729609 0.833844
84 2 0.462544 0.698401 0.929897
26 2 0.502958 0.844847 0.889296
25 1 0.504806 0.811943 0.850161
27 2 0.463212 0.813387 0.821872
157 1 0.492708 0.891495 0.705902
159 2 0.509953 0.882424 0.752712
158 2 0.472025 0.936538 0.702317
359 2 0.580631 0.929756 0.959266
448 1 0.649174 0.746536 0.923456
136 1 0.645607 0.986605 0.790199
449 2 0.617471 0.772343 0.954064
574 1 0.67549 0.968112 0.922078
575 2 0.715729 0.936413 0.926568
341 2 0.711147 0.747051 0.725372
342 2 0.701397 0.821464 0.694209
340 1 0.682326 0.774261 0.693013
324 2 0.803329 0.976277 0.771108
581 2 0.701276 0.67358 0.791402
580 1 0.744591 0.674481 0.764794
108 2 0.9958 0.769103 0.686463
431 2 0.876533 0.884629 0.795058
432 2 0.826447 0.87068 0.738908
430 1 0.825589 0.8913 0.786338
249 2 0.834073 0.874077 0.950783
248 2 0.798633 0.876998 0.872824
247 1 0.793003 0.879502 0.922823
711 2 0.898893 0.702325 0.812554
710 2 0.865035 0.778229 0.823093
198 2 0.979625 0.835428 0.768873
582 2 0.782749 0.692332 0.792994
709 1 0.855314 0.729393 0.813841
643 1 0.96614 0.775903 0.978169
644 2 0.928341 0.740964 0.980185
196 1 0.948552 0.842371 0.809053
197 2 0.975923 0.818632 0.845762
450 2 0.689987 0.774873 0.912628
576 2 0.672708 0.967576 0.870318
ITEM: TIMESTEP
88300
ITEM: NUMBER OF ATOMS
750
ITEM: BOX BOUNDS pp pp pp
1.0080904473052666e+01 2.9919095526947594e+01
1.0080904473052666e+01 2.9919095526947594e+01
1.0080904473052666e+01 2.9919095526947594e+01
ITEM: ATOMS id type xs ys zs
31 1 0.294698 0.0913149 0.178577
32 2 0.317726 0.045736 0.178307
595 1 0.288436 0.188174 0.278392
596 2 0.242627 0.212802 0.277608
63 2 0.2175 0.121636 0.115271
62 2 0.148611 0.158076 0.0827522
61 1 0.18109 0.15497 0.121239
650 2 0.9969 0.173928 0.0620275
597 2 0.283652 0.162097 0.233251
349 1 0.359437 0.313398 0.236724
649 1 0.0480742 0.173257 0.0612381
17 2 0.163689 0.20576 0.195812
236 2 0.971108 0.334389 0.018548
252 2 0.187046 0.298327 0.064342
293 2 0.178898 0.395715 0.11803
350 2 0.350192 0.269604 0.261742
16 1 0.157261 0.235545 0.238794
18 2 0.117531 0.26566 0.226882
259 1 0.106622 0.058527 0.0198894
714 2 0.283024 0.219964 0.0167209
261 2 0.0855991 0.105227 0.0237564
33 2 0.333475 0.122353 0.164315
428 2 0.470181 0.0795771 0.163854
427 1 0.433041 0.0468087 0.150188
738 2 0.372505 0.218567 0.095549
736 1 0.392287 0.21855 0.142813
351 2 0.364084 0.295175 0.188703
6 2 0.610242 0.131431 0.129838
5 2 0.633127 0.128305 0.0526433
673 1 0.43849 0.151669 0.295827
674 2 0.394697 0.163735 0.270087
4 1 0.615194 0.159347 0.0886502
326 2 0.603288 0.176929 0.299364
675 2 0.418893 0.170336 0.341516
325 1 0.569976 0.159463 0.266213
327 2 0.522547 0.170917 0.279979
275 2 0.630033 0.00764619 0.250939
153 2 0.563584 0.17715 0.00442536
151 1 0.529243 0.175119 0.967103
274 1 0.601073 0.0232632 0.211178
276 2 0.578072 0.0656151 0.228827
737 2 0.438619 0.199719 0.133681
191 2 0.410735 0.9801 0.0568786
190 1 0.423945 0.965187 0.0115715
720 2 0.722635 0.074512 0.255758
393 2 0.516506 0.292455 0.281927
179 2 0.525326 0.295872 0.166806
180 2 0.557614 0.244463 0.117129
178 1 0.551292 0.295473 0.12163
78 2 0.342137 0.939842 0.950664
452 2 0.432996 0.0335917 0.30388
429 2 0.432883 0.0125205 0.187764
381 2 0.658511 0.990412 0.327258
379 1 0.627516 0.95034 0.331172
712 1 0.332915 0.213633 0.00858812
651 2 0.0524109 0.223794 0.0514568
52 1 0.961067 0.244071 0.285868
235 1 0.921781 0.332855 0.0324278
266 2 0.820281 0.105599 0.165653
265 1 0.770578 0.0974975 0.153841
54 2 0.964514 0.294147 0.284882
696 2 0.910678 0.103702 0.0997614
267 2 0.772155 0.116674 0.106273
308 2 0.743843 0.222159 0.080374
307 1 0.78835 0.247154 0.081122
43 1 0.857367 0.209798 0.197646
45 2 0.82822 0.215951 0.239985
165 2 0.718923 0.0660898 0.98946
53 2 0.921947 0.226781 0.257491
229 1 0.7829 0.258736 0.310718
718 1 0.723226 0.0359456 0.290551
719 2 0.753458 0.00244898 0.264316
694 1 0.928923 0.0921859 0.147819
695 2 0.926513 0.141031 0.165078
309 2 0.774188 0.279914 0.0422058
670 1 0.803645 0.0658422 0.991739
44 2 0.835872 0.240547 0.161638
672 2 0.808038 0.0166203 0.979257
671 2 0.847998 0.0865561 0.979447
587 2 0.984886 0.0242949 0.151703
161 2 0.956431 0.160688 0.305571
160 1 0.969148 0.111743 0.31879
162 2 0.923257 0.104483 0.342789
163 1 0.667489 0.0749816 0.997153
314 2 0.17727 0.401526 0.268194
294 2 0.145873 0.368918 0.186741
292 1 0.174546 0.35426 0.148356
303 2 0.170732 0.560609 0.127996
678 2 0.337241 0.520062 0.219981
676 1 0.30929 0.559381 0.202365
677 2 0.269313 0.534155 0.181634
315 2 0.14147 0.468692 0.251963
313 1 0.129309 0.418184 0.25608
302 2 0.159575 0.564508 0.213077
301 1 0.171676 0.536686 0.172541
123 2 0.299418 0.639493 0.194297
535 1 0.3153 0.448264 0.300157
537 2 0.329792 0.408429 0.273386
749 2 0.0269385 0.615212 0.199927
748 1 0.0440741 0.591753 0.240178
335 2 0.13386 0.60309 0.967305
334 1 0.102029 0.623683 0.00192596
110 2 0.103517 0.316835 0.0128244
436 1 0.220728 0.447862 0.0316747
437 2 0.234911 0.495841 0.0215038
239 2 0.328061 0.454569 0.0960251
378 2 0.311963 0.560568 0.0250339
270 2 0.992763 0.428254 0.138427
750 2 0.0628851 0.625279 0.272011
336 2 0.135427 0.636785 0.0383963
536 2 0.283337 0.432268 0.336691
228 2 0.984271 0.394477 0.284936
376 1 0.28909 0.588916 0.98808
253 1 0.61801 0.405811 0.197362
392 2 0.446597 0.320768 0.251365
391 1 0.493962 0.30564 0.237265
255 2 0.648919 0.395982 0.235437
238 1 0.359268 0.479866 0.0653853
621 2 0.571394 0.494575 0.231738
492 2 0.47319 0.441023 0.130732
619 1 0.571733 0.544645 0.241563
620 2 0.527362 0.55912 0.218716
240 2 0.403604 0.452486 0.0618574
199 1 0.654252 0.478992 0.0800045
200 2 0.648001 0.445431 0.118361
669 2 0.474802 0.671103 0.216938
668 2 0.540508 0.634622 0.245436
667 1 0.503992 0.668247 0.259522
457 1 0.451494 0.542911 0.170454
458 2 0.480952 0.562295 0.132006
459 2 0.404868 0.559382 0.155968
254 2 0.60962 0.364015 0.169138
181 1 0.530415 0.565435 0.0557211
183 2 0.513838 0.612922 0.0480748
219 2 0.369531 0.522324 0.408979
491 2 0.49576 0.368736 0.114312
490 1 0.461254 0.403701 0.0955757
201 2 0.606235 0.49384 0.070922
182 2 0.537766 0.541044 0.0113224
377 2 0.330711 0.612037 0.968827
237 2 0.919859 0.347737 0.08076
146 2 0.64847 0.590661 0.225556
145 1 0.693377 0.612345 0.235606
268 1 0.942187 0.426623 0.139414
355 1 0.75753 0.352044 0.000431529
357 2 0.786486 0.38192 0.0321754