ITEM: TIMESTEP
0
ITEM: NUMBER OF ATOMS
6
ITEM: BOX BOUNDS pp pp pp
-5.0000000000000000e+01 5.0000000000000000e+01
-5.0000000000000000e+01 5.0000000000000000e+01
-5.0000000000000000e+01 5.0000000000000000e+01
ITEM: ATOMS id type xs ys zs
1 1 0.51 0.5 0.5
2 2 0.50243 0.50414 0.5
3 2 0.51757 0.50414 0.5
4 1 0.55 0.55 0.5
5 2 0.54243 0.55414 0.5
6 2 0.55757 0.55414 0.5
ITEM: TIMESTEP
1
ITEM: NUMBER OF ATOMS
6
ITEM: BOX BOUNDS pp pp pp
-5.0000000000000000e+01 5.0000000000000000e+01
-5.0000000000000000e+01 5.0000000000000000e+01
-5.0000000000000000e+01 5.0000000000000000e+01
ITEM: ATOMS id type xs ys zs
1 1 0.509998 0.499906 0.5
2 2 0.500769 0.504871 0.5
3 2 0.519231 0.504871 0.5
4 1 0.550002 0.54991 0.5
5 2 0.540769 0.554871 0.5
6 2 0.559231 0.554871 0.5
