6
Atoms. Timestep: 0
O 1 0 0
H 0.243 0.414 0
H 1.757 0.414 0
O -5 -5 0
H 4.243 -4.586 0
H -4.243 -4.586 0
6
Atoms. Timestep: 1
O 0.999996 -0.009286 2.29627e-22
H 0.0769143 0.487601 -3.74922e-21
H 1.92326 0.487787 -7.26252e-22
O -5 4.99071 1.20766e-23
H 4.07674 -4.51221 1.85521e-21
H -4.07691 -4.5124 -2.20232e-21
6
Atoms. Timestep: 2
O 1.00001 -0.0123178 8.12097e-23
H 0.121628 0.511442 -1.42868e-20
H 1.87875 0.512067 1.87419e-21
O 4.99999 4.98768 -6.92879e-23
H 4.12125 -4.48793 -2.91444e-21
H -4.12163 -4.48856 3.25984e-21
6
Atoms. Timestep: 3
O 1.00009 -0.0122337 -6.97028e-22
H 0.277259 0.510668 -1.4416e-20
H 1.72262 0.511506 5.69793e-21
O 4.99991 4.98777 -2.69012e-22
H 4.27738 -4.48849 -4.2749e-21
H -4.27726 -4.48933 1.44281e-20
6
Atoms. Timestep: 4
O 1.0002 -0.0300114 -1.27781e-21
H 0.136603 0.651435 -1.3197e-20
H 1.86258 0.652906 4.57082e-21
O 4.9998 4.96999 6.05634e-23
H 4.13742 -4.34709 -4.87599e-21
H -4.1366 -4.34856 2.80911e-20
6
Atoms. Timestep: 5
O 1.00029 -0.0306426 -2.42172e-21
H 0.221279 0.655942 9.95619e-21
H 1.77812 0.658419 3.40503e-21
O 4.99971 4.96936 3.42524e-22
H 4.22188 -4.34158 -4.16405e-21
H -4.22128 -4.34406 2.8295e-20
6
Atoms. Timestep: 6
O 1.00046 -0.024327 -4.15369e-21
H 0.328422 0.605565 2.85992e-20
H 1.67063 0.608554 -6.90252e-21
O 4.99954 4.97567 1.6539e-22
H 4.32937 -4.39145 -5.27908e-21
H -4.32842 -4.39443 2.13631e-20
6
Atoms. Timestep: 7
O 1.00072 -0.0332961 -5.92733e-21
H 0.149435 0.676169 5.78262e-20
H 1.84813 0.680307 -2.20012e-20
O 4.99928 4.9667 -6.47259e-22
H 4.15187 -4.31969 -8.00706e-21
H -4.14944 -4.32383 2.07719e-20
6
Atoms. Timestep: 8
O 1.00091 -0.0230935 -7.2397e-21
H 0.191081 0.594596 7.21008e-20
H 1.80694 0.599944 -3.22537e-20
O 4.99909 4.97691 -8.4242e-22
H 4.19306 -4.40006 -4.54554e-21
H -4.19108 -4.4054 5.90649e-21
6
Atoms. Timestep: 9
O 1.0011 -0.00995502 -9.15416e-21
H 0.256063 0.489672 8.09236e-20
H 1.74264 0.496334 -4.37588e-20
O 4.9989 4.99004 -5.61764e-22
H 4.25736 -4.50367 6.73542e-21
H -4.25606 -4.51033 -6.75431e-21
6
Atoms. Timestep: 10
O 1.00146 -0.01309 -1.18941e-20
H 0.0516377 0.513051 1.16043e-19
H 1.94554 0.522714 -6.99297e-20
O 4.99854 4.98691 -6.4615e-23
H 4.05446 -4.47729 1.99347e-20
H -4.05164 -4.48695 -2.26051e-20
