lammps testing 2 water molecules

6 atoms
6 bonds

2 atom types
2 bond types

-50.0 50.0 xlo xhi
-50.0 50.0 ylo yhi
-50.0 50.0 zlo zhi

Masses

1 15.999
2 1.008

Atoms

1 1 1 -0.8068 1.000 0.000 0.000 
2 1 2 0 0.243 0.414 0.000
3 1 2 0 1.757 0.414 0.000
4 2 1 -0.8068 5.000 5.000 0.000
5 2 2 0 4.243 5.414 0.000
6 2 2 0 5.757 5.414 0.000

Bonds

1 1 1 2
2 1 1 3
3 2 2 3
4 1 4 5
5 1 6 4
6 2 5 6
