6
Atoms. Timestep: 0
O 0 0 0
H 0 0 -1
H 1 0 0
O 0 0 3
H 0 0 4
H 1 0 3
6
Atoms. Timestep: 10
O 0.00876933 -6.32031e-21 -0.0125303
H -0.137998 7.87331e-20 -1.0041
H 0.998811 1.41427e-20 0.143386
O 0.00876933 1.51625e-20 3.01253
H -0.137998 -4.0784e-20 4.0041
H 0.998811 -3.49654e-20 2.85661
6
Atoms. Timestep: 20
O 0.010227 -1.41099e-20 -0.0173708
H -0.154263 1.36685e-19 -1.00207
H 0.991939 4.82771e-20 0.16298
O 0.010227 1.39437e-20 3.01737
H -0.154263 -8.18671e-20 4.00207
H 0.991939 -9.15812e-20 2.83702
6
Atoms. Timestep: 30
O 0.0104112 -1.97745e-20 -0.0208351
H -0.155152 1.52435e-19 -1.00454
H 0.989906 7.70284e-20 0.166866
O 0.0104112 1.11819e-20 3.02084
H -0.155152 -3.17696e-20 4.00454
H 0.989906 -5.87537e-20 2.83313
6
Atoms. Timestep: 40
O 0.0103378 -1.19033e-20 -0.0239743
H -0.152993 1.45514e-19 -1.0079
H 0.988912 1.0575e-19 0.167632
O 0.0103378 4.32509e-22 3.02397
H -0.152993 -9.69857e-21 4.0079
H 0.988912 -2.42992e-20 2.83237
6
Atoms. Timestep: 50
O 0.0102105 -1.58771e-20 -0.0269997
H -0.150206 1.76842e-19 -1.01139
H 0.988144 1.37082e-19 0.167745
O 0.0102105 2.73931e-21 3.027
H -0.150206 -2.2909e-20 4.01139
H 0.988144 -4.37046e-21 2.83226
6
Atoms. Timestep: 60
O 0.0100732 -1.88184e-20 -0.0299585
H -0.147307 1.80556e-19 -1.01485
H 0.987426 1.06639e-19 0.167731
O 0.0100732 3.43364e-21 3.02996
H -0.147307 -5.85116e-20 4.01485
H 0.987426 6.32619e-20 2.83227
6
Atoms. Timestep: 70
O 0.00993518 -2.20257e-20 -0.0328625
H -0.14441 2.42534e-19 -1.01826
H 0.986718 1.19729e-19 0.167704
O 0.00993518 1.16334e-21 3.03286
H -0.14441 -1.38333e-19 4.01826
H 0.986718 2.91854e-21 2.8323
6
Atoms. Timestep: 80
O 0.00979865 -1.77412e-20 -0.0357161
H -0.141537 1.96769e-19 -1.0216
H 0.986013 9.32429e-20 0.167687
O 0.00979865 -7.44235e-21 3.03572
H -0.141537 -1.00877e-19 4.0216
H 0.986013 -9.08675e-22 2.83231
6
Atoms. Timestep: 90
O 0.00966398 -2.6533e-20 -0.0385216
H -0.138694 2.22684e-19 -1.02488
H 0.985307 1.13164e-19 0.167685
O 0.00966398 1.16807e-21 3.03852
H -0.138694 -1.32511e-19 4.02488
H 0.985307 6.90977e-20 2.83232
6
Atoms. Timestep: 100
O 0.00953122 -4.23875e-20 -0.0412811
H -0.135882 3.03768e-19 -1.0281
H 0.984602 1.34773e-19 0.167696
O 0.00953122 1.13783e-20 3.04128
H -0.135882 -1.18499e-19 4.0281
H 0.984602 2.48718e-20 2.8323
6
Atoms. Timestep: 110
O 0.00940035 -5.04302e-20 -0.0439964
H -0.133099 2.45845e-19 -1.03126
H 0.983896 1.01787e-19 0.167721
O 0.00940035 4.92895e-21 3.044
H -0.133099 -1.08075e-19 4.03126
H 0.983896 1.17484e-19 2.83228
6
Atoms. Timestep: 120
O 0.00927133 -6.05102e-20 -0.0466691
H -0.130346 1.45296e-19 -1.03436
H 0.983191 9.54862e-20 0.167757
O 0.00927133 5.9302e-21 3.04667
H -0.130346 -7.42493e-20 4.03436
H 0.983191 1.18874e-19 2.83224
6
Atoms. Timestep: 130
O 0.00914412 -6.06187e-20 -0.0493008
H -0.127622 1.31726e-19 -1.03741
H 0.982486 1.9944e-20 0.167805
O 0.00914412 3.63553e-21 3.0493
H -0.127622 -1.44557e-19 4.03741
H 0.982486 7.39702e-20 2.8322
6
Atoms. Timestep: 140
O 0.00901868 -5.51753e-20 -0.051893
H -0.124926 2.14039e-19 -1.04041
H 0.981781 4.93695e-20 0.167862
O 0.00901868 5.07195e-21 3.05189
H -0.124926 -2.0423e-19 4.04041
H 0.981781 5.23526e-20 2.83214
6
Atoms. Timestep: 150
O 0.00889497 -5.92622e-20 -0.0544471
H -0.122258 2.07139e-19 -1.04336
H 0.981077 2.39528e-20 0.167929
O 0.00889497 1.22528e-20 3.05445
H -0.122258 -2.01496e-19 4.04336
H 0.981077 -3.70252e-20 2.83207
6
Atoms. Timestep: 160
O 0.00877296 -5.95605e-20 -0.0569644
H -0.119618 1.13504e-19 -1.04625
H 0.980373 3.64988e-20 0.168004
O 0.00877296 8.36743e-21 3.05696
H -0.119618 -1.37095e-19 4.04625
H 0.980373 1.12006e-19 2.832
6
Atoms. Timestep: 170
O 0.00865262 -5.87991e-20 -0.0594462
H -0.117004 1.80916e-19 -1.0491
H 0.97967 1.48613e-19 0.168087
O 0.00865262 1.91167e-20 3.05945
H -0.117004 -2.08135e-19 4.0491
H 0.97967 8.99106e-20 2.83191
6
Atoms. Timestep: 180
O 0.0085339 -5.03156e-20 -0.0618936
H -0.114418 1.80313e-19 -1.05191
H 0.978967 2.69917e-19 0.168176
O 0.0085339 1.02863e-20 3.06189
H -0.114418 -2.39558e-19 4.05191
H 0.978967 5.47292e-20 2.83182
6
Atoms. Timestep: 190
O 0.00841678 -6.36532e-20 -0.0643077
H -0.111857 2.67196e-19 -1.05467
H 0.978266 2.01491e-19 0.168271
O 0.00841678 1.25071e-20 3.06431
H -0.111857 -3.66518e-19 4.05467
H 0.978266 1.17504e-19 2.83173
6
Atoms. Timestep: 200
O 0.00830122 -6.77389e-20 -0.0666898
H -0.109322 2.85886e-19 -1.05739
H 0.977565 1.76698e-19 0.168372
O 0.00830122 2.22801e-20 3.06669
H -0.109322 -3.62619e-19 4.05739
H 0.977565 7.14633e-20 2.83163
6
Atoms. Timestep: 210
O 0.0081872 -7.63425e-20 -0.0690407
H -0.106813 3.65702e-19 -1.06006
H 0.976865 2.59929e-19 0.168477
O 0.0081872 2.25797e-20 3.06904
H -0.106813 -4.38431e-19 4.06006
H 0.976865 -3.38359e-20 2.83152
6
Atoms. Timestep: 220
O 0.00807468 -7.6379e-20 -0.0713615
H -0.104328 3.45545e-19 -1.06269
H 0.976167 2.27134e-19 0.168586
O 0.00807468 2.23162e-20 3.07136
H -0.104328 -4.97348e-19 4.06269
H 0.976167 1.71565e-20 2.83141
6
Atoms. Timestep: 230
O 0.00796364 -7.14021e-20 -0.073653
H -0.101868 3.69867e-19 -1.06529
H 0.975469 2.27535e-19 0.168699
O 0.00796364 1.82168e-20 3.07365
H -0.101868 -5.73639e-19 4.06529
H 0.975469 1.24669e-19 2.8313
6
Atoms. Timestep: 240
O 0.00785405 -6.96442e-20 -0.0759162
H -0.0994325 4.29616e-19 -1.06785
H 0.974773 2.31653e-19 0.168816
O 0.00785405 1.63899e-20 3.07592
H -0.0994325 -5.97454e-19 4.06785
H 0.974773 6.5178e-20 2.83118
6
Atoms. Timestep: 250
O 0.00774588 -7.34262e-20 -0.0781519
H -0.0970207 5.43349e-19 -1.07037
H 0.974078 2.95204e-19 0.168934
O 0.00774588 1.40382e-20 3.07815
H -0.0970207 -5.82867e-19 4.07037
H 0.974078 1.53195e-19 2.83107
6
Atoms. Timestep: 260
O 0.00763911 -7.00294e-20 -0.0803608
H -0.0946325 6.4056e-19 -1.07285
H 0.973384 3.06597e-19 0.169055
O 0.00763911 1.68629e-20 3.08036
H -0.0946325 -6.87009e-19 4.07285
H 0.973384 1.78512e-19 2.83094
6
Atoms. Timestep: 270
O 0.00753372 -6.72533e-20 -0.0825439
H -0.0922676 7.07668e-19 -1.0753
H 0.972692 3.73474e-19 0.169178
O 0.00753372 1.75423e-20 3.08254
H -0.0922676 -6.86693e-19 4.0753
H 0.972692 3.18845e-20 2.83082
6
Atoms. Timestep: 280
O 0.00742967 -7.18237e-20 -0.0847017
H -0.0899256 7.70017e-19 -1.07771
H 0.972002 4.99985e-19 0.169302
O 0.00742967 2.39763e-20 3.0847
H -0.0899256 -7.66966e-19 4.07771
H 0.972002 -1.3394e-19 2.8307
6
Atoms. Timestep: 290
O 0.00732694 -7.65785e-20 -0.086835
H -0.0876062 7.45661e-19 -1.0801
H 0.971313 5.16232e-19 0.169426
O 0.00732694 2.3657e-20 3.08683
H -0.0876062 -7.81947e-19 4.0801
H 0.971313 -1.497e-19 2.83057
6
Atoms. Timestep: 300
O 0.00722551 -8.11622e-20 -0.0889444
H -0.0853091 6.83828e-19 -1.08245
H 0.970626 5.04143e-19 0.169552
O 0.00722551 3.07932e-20 3.08894
H -0.0853091 -7.93392e-19 4.08245
H 0.970626 -1.2972e-19 2.83045
6
Atoms. Timestep: 310
O 0.00712536 -8.47469e-20 -0.0910307
H -0.0830341 7.23411e-19 -1.08476
H 0.96994 5.5756e-19 0.169678
O 0.00712536 2.82379e-20 3.09103
H -0.0830341 -8.32692e-19 4.08476
H 0.96994 -1.23872e-19 2.83032
6
Atoms. Timestep: 320
O 0.00702647 -9.2558e-20 -0.0930944
H -0.0807807 7.62693e-19 -1.08705
H 0.969256 4.7225e-19 0.169804
O 0.00702647 3.82814e-20 3.09309
H -0.0807807 -8.9647e-19 4.08705
H 0.969256 -1.9948e-20 2.8302
6
Atoms. Timestep: 330
O 0.00692881 -1.0473e-19 -0.0951361
H -0.0785488 7.17824e-19 -1.08931
H 0.968575 5.44505e-19 0.169929
O 0.00692881 5.57039e-20 3.09514
H -0.0785488 -9.24011e-19 4.08931
H 0.968575 -8.04119e-20 2.83007
6
Atoms. Timestep: 340
O 0.00683237 -1.0263e-19 -0.0971563
H -0.0763381 7.52625e-19 -1.09154
H 0.967895 5.60179e-19 0.170054
O 0.00683237 6.32679e-20 3.09716
H -0.0763381 -9.96168e-19 4.09154
H 0.967895 -2.77906e-19 2.82995
6
Atoms. Timestep: 350
O 0.00673712 -1.04636e-19 -0.0991557
H -0.0741482 7.75309e-19 -1.09374
H 0.967216 4.82503e-19 0.170178
O 0.00673712 7.16789e-20 3.09916
H -0.0741482 -1.01384e-18 4.09374
H 0.967216 -2.55716e-19 2.82982
6
Atoms. Timestep: 360
O 0.00664304 -9.95863e-20 -0.101135
H -0.071979 7.93495e-19 -1.09591
H 0.96654 4.14544e-19 0.170301
O 0.00664304 6.96005e-20 3.10113
H -0.071979 -1.04776e-18 4.09591
H 0.96654 -2.056e-19 2.8297
6
Atoms. Timestep: 370
O 0.00655012 -1.16961e-19 -0.103094
H -0.0698302 7.64857e-19 -1.09806
H 0.965866 4.69895e-19 0.170423
O 0.00655012 7.3033e-20 3.10309
H -0.0698302 -1.07355e-18 4.09806
H 0.965866 -2.90768e-19 2.82958
6
Atoms. Timestep: 380
O 0.00645834 -1.26486e-19 -0.105034
H -0.0677014 8.90458e-19 -1.10017
H 0.965195 4.17683e-19 0.170544
O 0.00645834 8.6282e-20 3.10503
H -0.0677014 -1.20559e-18 4.10017
H 0.965195 -2.23983e-19 2.82946
6
Atoms. Timestep: 390
O 0.00636767 -1.28648e-19 -0.106955
H -0.0655925 9.20011e-19 -1.10227
H 0.964525 5.73256e-19 0.170662
O 0.00636767 9.04606e-20 3.10695
H -0.0655925 -1.26425e-18 4.10227
H 0.964525 -3.74636e-19 2.82934
6
Atoms. Timestep: 400
O 0.00627809 -1.3771e-19 -0.108857
H -0.0635033 9.62321e-19 -1.10434
H 0.963857 7.36188e-19 0.170779
O 0.00627809 9.88406e-20 3.10886
H -0.0635033 -1.26838e-18 4.10434
H 0.963857 -5.17687e-19 2.82922
6
Atoms. Timestep: 410
O 0.0061896 -1.33887e-19 -0.110741
H -0.0614334 1.07865e-18 -1.10638
H 0.963192 9.87293e-19 0.170894
O 0.0061896 9.79776e-20 3.11074
H -0.0614334 -1.34125e-18 4.10638
H 0.963192 -6.40104e-19 2.82911
6
Atoms. Timestep: 420
O 0.00610218 -1.44428e-19 -0.112608
H -0.0593826 1.20896e-18 -1.1084
H 0.962529 1.06771e-18 0.171007
O 0.00610218 1.10098e-19 3.11261
H -0.0593826 -1.47501e-18 4.1084
H 0.962529 -7.57336e-19 2.82899
6
Atoms. Timestep: 430
O 0.00601579 -1.50003e-19 -0.114458
H -0.0573507 1.26602e-18 -1.1104
H 0.961868 1.28173e-18 0.171117
O 0.00601579 1.16344e-19 3.11446
H -0.0573507 -1.57211e-18 4.1104
H 0.961868 -9.26256e-19 2.82888
6
Atoms. Timestep: 440
O 0.00593044 -1.66756e-19 -0.116291
H -0.0553375 1.28913e-18 -1.11238
H 0.961209 1.32049e-18 0.171225
O 0.00593044 1.44095e-19 3.11629
H -0.0553375 -1.67109e-18 4.11238
H 0.961209 -9.43802e-19 2.82877
6
Atoms. Timestep: 450
O 0.00584611 -1.78338e-19 -0.118107
H -0.0533428 1.4116e-18 -1.11433
H 0.960553 1.17888e-18 0.171331
O 0.00584611 1.48666e-19 3.11811
H -0.0533428 -1.71575e-18 4.11433
H 0.960553 -8.53603e-19 2.82867
6
Atoms. Timestep: 460
O 0.00576276 -1.82725e-19 -0.119907
H -0.0513662 1.39674e-18 -1.11626
H 0.959899 1.2613e-18 0.171433
O 0.00576276 1.49431e-19 3.11991
H -0.0513662 -1.79149e-18 4.11626
H 0.959899 -9.78832e-19 2.82857
6
Atoms. Timestep: 470
O 0.00568041 -1.91421e-19 -0.121692
H -0.0494077 1.53551e-18 -1.11817
H 0.959248 1.35278e-18 0.171533
O 0.00568041 1.57042e-19 3.12169
H -0.0494077 -1.95583e-18 4.11817
H 0.959248 -1.10491e-18 2.82847
6
Atoms. Timestep: 480
O 0.00559901 -2.04544e-19 -0.123461
H -0.0474669 1.52566e-18 -1.12006
H 0.958599 1.58788e-18 0.17163
O 0.00559901 1.68181e-19 3.12346
H -0.0474669 -2.04831e-18 4.12006
H 0.958599 -1.13893e-18 2.82837
6
Atoms. Timestep: 490
O 0.00551857 -2.12652e-19 -0.125215
H -0.0455437 1.56067e-18 -1.12193
H 0.957953 1.62533e-18 0.171724
O 0.00551857 1.78528e-19 3.12521
H -0.0455437 -2.07981e-18 4.12193
H 0.957953 -1.22726e-18 2.82828
6
Atoms. Timestep: 500
O 0.00543903 -2.38839e-19 -0.126954
H -0.0436372 1.60004e-18 -1.12378
H 0.957309 1.90945e-18 0.171815
O 0.00543903 1.9668e-19 3.12695
H -0.0436372 -2.137e-18 4.12378
H 0.957309 -1.34302e-18 2.82818
6
Atoms. Timestep: 510
O 0.00536037 -2.5585e-19 -0.128679
H -0.0417471 1.79047e-18 -1.12561
H 0.956667 2.14597e-18 0.171904
O 0.00536037 2.13326e-19 3.12868
H -0.0417471 -2.15284e-18 4.12561
H 0.956667 -1.59859e-18 2.8281
6
Atoms. Timestep: 520
O 0.00528264 -2.69239e-19 -0.13039
H -0.0398742 1.88301e-18 -1.12742
H 0.956028 2.36434e-18 0.171989
O 0.00528264 2.30282e-19 3.13039
H -0.0398742 -2.18654e-18 4.12742
H 0.956028 -1.89906e-18 2.82801
6
Atoms. Timestep: 530
O 0.00520582 -2.92388e-19 -0.132087
H -0.038018 1.9851e-18 -1.12921
H 0.955391 2.48302e-18 0.172072
O 0.00520582 2.45346e-19 3.13209
H -0.038018 -2.35056e-18 4.12921
H 0.955391 -2.05441e-18 2.82793
6
Atoms. Timestep: 540
O 0.00512986 -3.07289e-19 -0.13377
H -0.0361783 2.06532e-18 -1.13098
H 0.954757 2.76138e-18 0.17215
O 0.00512986 2.64609e-19 3.13377
H -0.0361783 -2.42274e-18 4.13098
H 0.954757 -2.26278e-18 2.82785
6
Atoms. Timestep: 550
O 0.00505478 -3.2333e-19 -0.135441
H -0.0343548 2.15499e-18 -1.13274
H 0.954125 2.94769e-18 0.172226
O 0.00505478 2.74025e-19 3.13544
H -0.0343548 -2.47054e-18 4.13274
H 0.954125 -2.38164e-18 2.82777
6
Atoms. Timestep: 560
O 0.00498053 -3.4562e-19 -0.137098
H -0.0325474 2.1787e-18 -1.13448
H 0.953496 3.28532e-18 0.172298
O 0.00498053 2.99622e-19 3.1371
H -0.0325474 -2.5177e-18 4.13448
H 0.953496 -2.68694e-18 2.8277
6
Atoms. Timestep: 570
O 0.00490712 -3.80022e-19 -0.138743
H -0.0307556 2.35329e-18 -1.1362
H 0.95287 3.56465e-18 0.172366
O 0.00490712 3.26699e-19 3.13874
H -0.0307556 -2.68048e-18 4.1362
H 0.95287 -2.93465e-18 2.82763
6
Atoms. Timestep: 580
O 0.00483452 -4.00112e-19 -0.140375
H -0.0289791 2.57129e-18 -1.1379
H 0.952245 3.8034e-18 0.172431
O 0.00483452 3.55582e-19 3.14038
H -0.0289791 -2.80427e-18 4.1379
H 0.952245 -3.16163e-18 2.82757
6
Atoms. Timestep: 590
O 0.00476271 -4.19095e-19 -0.141996
H -0.0272177 2.65351e-18 -1.13959
H 0.951624 4.12739e-18 0.172493
O 0.00476271 3.7596e-19 3.142
H -0.0272177 -2.88873e-18 4.13959
H 0.951624 -3.52907e-18 2.82751
6
Atoms. Timestep: 600
O 0.00469167 -4.48142e-19 -0.143606
H -0.0254708 2.79695e-18 -1.14127
H 0.951004 4.53831e-18 0.17255
O 0.00469167 3.98662e-19 3.14361
H -0.0254708 -2.99708e-18 4.14127
H 0.951004 -4.01772e-18 2.82745
6
Atoms. Timestep: 610
O 0.00462137 -4.71156e-19 -0.145205
H -0.0237379 2.95682e-18 -1.14293
H 0.950387 4.8965e-18 0.172604
O 0.00462137 4.18031e-19 3.1452
H -0.0237379 -3.18792e-18 4.14293
H 0.950387 -4.29652e-18 2.8274
6
Atoms. Timestep: 620
O 0.00455178 -4.97608e-19 -0.146794
H -0.0220181 3.13938e-18 -1.14458
H 0.949772 5.27804e-18 0.172655
O 0.00455178 4.47715e-19 3.14679
H -0.0220181 -3.37446e-18 4.14458
H 0.949772 -4.70128e-18 2.82735
6
Atoms. Timestep: 630
O 0.00448284 -5.30498e-19 -0.148374
H -0.0203105 3.33782e-18 -1.14621
H 0.949159 5.60968e-18 0.172702
O 0.00448284 4.76656e-19 3.14837
H -0.0203105 -3.54903e-18 4.14621
H 0.949159 -4.97936e-18 2.8273
6
Atoms. Timestep: 640
O 0.00441451 -5.64226e-19 -0.149947
H -0.0186137 3.55195e-18 -1.14783
H 0.948547 5.97298e-18 0.172745
O 0.00441451 5.05662e-19 3.14995
H -0.0186137 -3.8124e-18 4.14783
H 0.948547 -5.15548e-18 2.82726
6
Atoms. Timestep: 650
O 0.00434669 -6.09684e-19 -0.151513
H -0.0169257 3.82626e-18 -1.14945
H 0.947935 6.38447e-18 0.172784
O 0.00434669 5.42987e-19 3.15151
H -0.0169257 -4.04065e-18 4.14945
H 0.947935 -5.58804e-18 2.82722
6
Atoms. Timestep: 660
O 0.00427928 -6.36476e-19 -0.153077
H -0.0152438 4.08861e-18 -1.15106
H 0.947323 6.82384e-18 0.17282
O 0.00427928 5.73121e-19 3.15308
H -0.0152438 -4.29078e-18 4.15106
H 0.947323 -5.95668e-18 2.82718
6
Atoms. Timestep: 670
O 0.00421211 -6.76935e-19 -0.154642
H -0.0135639 4.37337e-18 -1.15266
H 0.946709 7.16121e-18 0.172853
O 0.00421211 6.18808e-19 3.15464
H -0.0135639 -4.46877e-18 4.15266
H 0.946709 -6.24161e-18 2.82715
6
Atoms. Timestep: 680
O 0.00414497 -7.21366e-19 -0.156212
H -0.0118806 4.64657e-18 -1.15427
H 0.946092 7.59747e-18 0.172881
O 0.00414497 6.60043e-19 3.15621
H -0.0118806 -4.77587e-18 4.15427
H 0.946092 -6.82335e-18 2.82712
6
Atoms. Timestep: 690
O 0.00407751 -7.64768e-19 -0.157797
H -0.0101853 4.8434e-18 -1.15589
H 0.945467 8.02398e-18 0.172906
O 0.00407751 7.18169e-19 3.1578
H -0.0101853 -5.1028e-18 4.15589
H 0.945467 -7.34708e-18 2.82709
6
Atoms. Timestep: 700
O 0.00400926 -8.18444e-19 -0.159407
H -0.00846596 5.08423e-18 -1.15753
H 0.944831 8.62398e-18 0.172927
O 0.00400926 7.61584e-19 3.15941
H -0.00846596 -5.34309e-18 4.15753
H 0.944831 -7.97356e-18 2.82707
6
Atoms. Timestep: 710
O 0.00393951 -8.61931e-19 -0.16106
H -0.00670426 5.45691e-18 -1.15921
H 0.944176 9.12005e-18 0.172945
O 0.00393951 8.08623e-19 3.16106
H -0.00670426 -5.69566e-18 4.15921
H 0.944176 -8.63179e-18 2.82706
6
Atoms. Timestep: 720
O 0.00386717 -9.39105e-19 -0.162783
H -0.00487248 5.7214e-18 -1.16096
H 0.943493 9.86579e-18 0.172958
O 0.00386717 8.87155e-19 3.16278
H -0.00487248 -5.98509e-18 4.16096
H 0.943493 -9.28528e-18 2.82704
6
Atoms. Timestep: 730
O 0.00379057 -1.00975e-18 -0.164616
H -0.00292755 6.25195e-18 -1.16282
H 0.942763 1.06125e-17 0.172967
O 0.00379057 9.61843e-19 3.16462
H -0.00292755 -6.41558e-18 4.16282
H 0.942763 -1.00132e-17 2.82703
6
Atoms. Timestep: 740
O 0.00370705 -1.09018e-18 -0.166626
H -0.00080066 6.67433e-18 -1.16485
H 0.941962 1.15627e-17 0.17297
O 0.00370705 1.04541e-18 3.16663
H -0.00080066 -6.96529e-18 4.16485
H 0.941962 -1.0971e-17 2.82703
6
Atoms. Timestep: 750
O 0.00361224 -1.18489e-18 -0.168923
H 0.00162196 7.25861e-18 -1.16717
H 0.941045 1.28458e-17 0.172964
O 0.00361224 1.15407e-18 3.16892
H 0.00162196 -7.54769e-18 4.16717
H 0.941045 -1.20972e-17 2.82704
6
Atoms. Timestep: 760
O 0.00349872 -1.33496e-18 -0.171693
H 0.00453354 8.04633e-18 -1.16995
H 0.939935 1.42469e-17 0.172945
O 0.00349872 1.29299e-18 3.17169
H 0.00453354 -8.36218e-18 4.16995
H 0.939935 -1.37314e-17 2.82705
6
Atoms. Timestep: 770
O 0.00335449 -1.54032e-18 -0.175245
H 0.00825099 9.42085e-18 -1.17351
H 0.938506 1.61929e-17 0.1729
O 0.00335449 1.50433e-18 3.17525
H 0.00825099 -9.36209e-18 4.17351
H 0.938506 -1.59596e-17 2.8271
6
Atoms. Timestep: 780
O 0.00316562 -1.92563e-18 -0.179955
H 0.01315 1.12197e-17 -1.17821
H 0.936605 2.01171e-17 0.172806
O 0.00316562 1.83966e-18 3.17996
H 0.01315 -1.11385e-17 4.17821
H 0.936605 -2.00572e-17 2.82719
6
Atoms. Timestep: 790
O 0.00293567 -2.44013e-18 -0.185784
H 0.0191629 1.40494e-17 -1.18398
H 0.934242 2.63307e-17 0.172631
O 0.00293567 2.34844e-18 3.18578
H 0.0191629 -1.46686e-17 4.18398
H 0.934242 -2.64952e-17 2.82737
6
Atoms. Timestep: 800
O 0.00269322 -3.17755e-18 -0.192053
H 0.0255619 1.84085e-17 -1.19015
H 0.931691 3.44385e-17 0.172367
O 0.00269322 3.0219e-18 3.19205
H 0.0255619 -1.85163e-17 4.19015
H 0.931691 -3.40998e-17 2.82763
6
Atoms. Timestep: 810
O 0.00245446 -4.11579e-18 -0.19836
H 0.0319244 2.38626e-17 -1.19631
H 0.929118 4.51331e-17 0.172015
O 0.00245446 3.96874e-18 3.19836
H 0.0319244 -2.41053e-17 4.19631
H 0.929118 -4.52057e-17 2.82798
6
Atoms. Timestep: 820
O 0.0022208 -5.47616e-18 -0.204672
H 0.038211 3.16969e-17 -1.20243
H 0.92654 6.03088e-17 0.171575
O 0.0022208 5.25892e-18 3.20467
H 0.038211 -3.18749e-17 4.20243
H 0.92654 -5.93051e-17 2.82842
6
Atoms. Timestep: 830
O 0.00199208 -7.2099e-18 -0.210994
H 0.0444242 4.14882e-17 -1.20853
H 0.923957 7.93643e-17 0.171043
O 0.00199208 6.94288e-18 3.21099
H 0.0444242 -4.13447e-17 4.20853
H 0.923957 -7.81477e-17 2.82896
6
Atoms. Timestep: 840
O 0.00176831 -9.49909e-18 -0.217326
H 0.0505611 5.51261e-17 -1.21459
H 0.921372 1.05032e-16 0.170417
O 0.00176831 9.34279e-18 3.21733
H 0.0505611 -5.39782e-17 4.21459
H 0.921372 -1.03742e-16 2.82958
6
Atoms. Timestep: 850
O 0.00154933 -1.24589e-17 -0.223667
H 0.0566232 7.14311e-17 -1.22063
H 0.918786 1.38992e-16 0.169698
O 0.00154933 1.23759e-17 3.22367
H 0.0566232 -7.01204e-17 4.22063
H 0.918786 -1.37501e-16 2.8303
6
Atoms. Timestep: 860
O 0.0013354 -1.65361e-17 -0.230017
H 0.062604 9.32237e-17 -1.22664
H 0.916201 1.86347e-16 0.168884
O 0.0013354 1.64212e-17 3.23002
H 0.062604 -9.24162e-17 4.22664
H 0.916201 -1.84404e-16 2.83112
6
Atoms. Timestep: 870
O 0.00112642 -2.20892e-17 -0.236377
H 0.0685012 1.23399e-16 -1.23263
H 0.91362 2.51342e-16 0.167971
O 0.00112642 2.1944e-17 3.23638
H 0.0685012 -1.22726e-16 4.23263
H 0.91362 -2.49121e-16 2.83203
6
Atoms. Timestep: 880
O 0.000922352 -2.94746e-17 -0.242745
H 0.0743146 1.63388e-16 -1.2386
H 0.911046 3.39615e-16 0.16696
O 0.000922352 2.93522e-17 3.24275
H 0.0743146 -1.6247e-16 4.2386
H 0.911046 -3.36806e-16 2.83304
6
Atoms. Timestep: 890
O 0.000723139 -3.95635e-17 -0.249122
H 0.0800432 2.16409e-16 -1.24454
H 0.908479 4.59109e-16 0.165851
O 0.000723139 3.93395e-17 3.24912
H 0.0800432 -2.15568e-16 4.24454
H 0.908479 -4.55902e-16 2.83415
6
Atoms. Timestep: 900
O 0.000528709 -5.32556e-17 -0.255507
H 0.0856869 2.89391e-16 -1.25046
H 0.905921 6.25088e-16 0.164645
O 0.000528709 5.29482e-17 3.25551
H 0.0856869 -2.8736e-16 4.25046
H 0.905921 -6.20292e-16 2.83536
6
Atoms. Timestep: 910
O 0.000338982 -7.20958e-17 -0.261899
H 0.0912456 3.88378e-16 -1.25637
H 0.903374 8.54376e-16 0.163342
O 0.000338982 7.1659e-17 3.2619
H 0.0912456 -3.8653e-16 4.25637
H 0.903374 -8.47425e-16 2.83666
6
Atoms. Timestep: 920
O 0.000153865 -9.81694e-17 -0.268299
H 0.0967197 5.25781e-16 -1.26226
H 0.900838 1.1723e-15 0.161945
O 0.000153865 9.76213e-17 3.2683
H 0.0967197 -5.24309e-16 4.26226
H 0.900838 -1.16352e-15 2.83806
6
Atoms. Timestep: 930
O -2.6742e-05 -1.34547e-16 -0.274706
H 0.10211 7.17772e-16 -1.26812
H 0.898314 1.61506e-15 0.160453
O -2.6742e-05 1.33898e-16 3.27471
H 0.10211 -7.15357e-16 4.26812
H 0.898314 -1.6062e-15 2.83955
6
Atoms. Timestep: 940
O -0.000202951 -1.85084e-16 -0.281119
H 0.107418 9.85907e-16 -1.27398
H 0.895804 2.23662e-15 0.15887
O -0.000202951 1.84448e-16 3.28112
H 0.107418 -9.82115e-16 4.27398
H 0.895804 -2.22798e-15 2.84113
6
Atoms. Timestep: 950
O -0.000374878 -2.55542e-16 -0.287539
H 0.112644 1.3578e-15 -1.27982
H 0.893306 3.10936e-15 0.157197
O -0.000374878 2.54975e-16 3.28754
H 0.112644 -1.35359e-15 4.27982
H 0.893306 -3.1015e-15 2.8428
6
Atoms. Timestep: 960
O -0.000542646 -3.54527e-16 -0.293965
H 0.11779 1.88106e-15 -1.28564
H 0.890823 4.34283e-15 0.155437
O -0.000542646 3.54113e-16 3.29396
H 0.11779 -1.87655e-15 4.28564
H 0.890823 -4.33556e-15 2.84456
6
Atoms. Timestep: 970
O -0.000706383 -4.94755e-16 -0.300396
H 0.122858 2.62234e-15 -1.29145
H 0.888353 6.09521e-15 0.153591
O -0.000706383 4.94408e-16 3.3004
H 0.122858 -2.61846e-15 4.29145
H 0.888353 -6.08868e-15 2.84641
6
Atoms. Timestep: 980
O -0.000866221 -6.93859e-16 -0.306832
H 0.127851 3.67412e-15 -1.29725
H 0.885898 8.59473e-15 0.151663
O -0.000866221 6.93582e-16 3.30683
H 0.127851 -3.67202e-15 4.29725
H 0.885898 -8.58874e-15 2.84834
6
Atoms. Timestep: 990
O -0.00102229 -9.77799e-16 -0.313274
H 0.13277 5.17708e-15 -1.30303
H 0.883456 1.21764e-14 0.149655
O -0.00102229 9.77425e-16 3.31327
H 0.13277 -5.17603e-15 4.30303
H 0.883456 -1.2169e-14 2.85035
6
Atoms. Timestep: 1000
O -0.00117473 -1.38482e-15 -0.31972
H 0.137618 7.33515e-15 -1.3088
H 0.881027 1.73281e-14 0.14757
O -0.00117473 1.38423e-15 3.31972
H 0.137618 -7.33385e-15 4.3088
H 0.881027 -1.73194e-14 2.85243
6
Atoms. Timestep: 1010
O -0.00132367 -1.97015e-15 -0.32617
H 0.142397 1.04435e-14 -1.31457
H 0.878612 2.47672e-14 0.145411
O -0.00132367 1.96948e-15 3.32617
H 0.142397 -1.04439e-14 4.31457
H 0.878612 -2.47563e-14 2.85459
6
Atoms. Timestep: 1020
O -0.00146925 -2.8163e-15 -0.332625
H 0.14711 1.49471e-14 -1.32032
H 0.87621 3.55556e-14 0.143181
O -0.00146925 2.81558e-15 3.33262
H 0.14711 -1.49464e-14 4.32032
H 0.87621 -3.55437e-14 2.85682
6
Atoms. Timestep: 1030
O -0.0016116 -4.04439e-15 -0.339083
H 0.15176 2.14982e-14 -1.32606
H 0.873819 5.12667e-14 0.140883
O -0.0016116 4.04367e-15 3.33908
H 0.15176 -2.14969e-14 4.32606
H 0.873819 -5.1254e-14 2.85912
6
Atoms. Timestep: 1040
O -0.00175085 -5.83395e-15 -0.345545
H 0.156349 3.10678e-14 -1.33178
H 0.87144 7.42357e-14 0.138519
O -0.00175085 5.83326e-15 3.34554
H 0.156349 -3.10659e-14 4.33178
H 0.87144 -7.42224e-14 2.86148
6
Atoms. Timestep: 1050
O -0.00188713 -8.45294e-15 -0.35201
H 0.16088 4.51092e-14 -1.3375
H 0.869072 1.0795e-13 0.136094
O -0.00188713 8.45233e-15 3.35201
H 0.16088 -4.51081e-14 4.3375
H 0.869072 -1.07934e-13 2.86391
6
Atoms. Timestep: 1060
O -0.00202057 -1.23018e-14 -0.358478
H 0.165357 6.58043e-14 -1.34321
H 0.866714 1.57633e-13 0.133609
O -0.00202057 1.23013e-14 3.35848
H 0.165357 -6.58032e-14 4.34321
H 0.866714 -1.57616e-13 2.86639
6
Atoms. Timestep: 1070
O -0.00215128 -1.79808e-14 -0.364949
H 0.169781 9.64323e-14 -1.34891
H 0.864364 2.31133e-13 0.131069
O -0.00215128 1.79803e-14 3.36495
H 0.169781 -9.64289e-14 4.34891
H 0.864364 -2.31115e-13 2.86893
6
Atoms. Timestep: 1080
O -0.00227939 -2.63941e-14 -0.371423
H 0.174156 1.4195e-13 -1.3546
H 0.862023 3.40284e-13 0.128475
O -0.00227939 2.63939e-14 3.37142
H 0.174156 -1.41945e-13 4.3546
H 0.862023 -3.40268e-13 2.87153
6
Atoms. Timestep: 1090
O -0.00240502 -3.89081e-14 -0.377899
H 0.178484 2.09881e-13 -1.36028
H 0.859689 5.03007e-13 0.12583
O -0.00240502 3.89078e-14 3.3779
H 0.178484 -2.09876e-13 4.36028
H 0.859689 -5.0299e-13 2.87417
6
Atoms. Timestep: 1100
O -0.00252826 -5.75948e-14 -0.384377
H 0.182768 3.11681e-13 -1.36595
H 0.857361 7.46512e-13 0.123138
O -0.00252826 5.75945e-14 3.38438
H 0.182768 -3.1168e-13 4.36595
H 0.857361 -7.46494e-13 2.87686
6
Atoms. Timestep: 1110
O -0.00264923 -8.56083e-14 -0.390858
H 0.187011 4.64858e-13 -1.3716
H 0.855038 1.11227e-12 0.120401
O -0.00264923 8.5608e-14 3.39086
H 0.187011 -4.64861e-13 4.3716
H 0.855038 -1.11226e-12 2.8796
6
Atoms. Timestep: 1120
O -0.00276803 -1.27766e-13 -0.397341
H 0.191215 6.96272e-13 -1.37725
H 0.852719 1.66373e-12 0.117621
O -0.00276803 1.27766e-13 3.39734
H 0.191215 -6.96278e-13 4.37725
H 0.852719 -1.66371e-12 2.88238
6
Atoms. Timestep: 1130
O -0.00288475 -1.91453e-13 -0.403826
H 0.195383 1.04728e-12 -1.38289
H 0.850404 2.49822e-12 0.114802
O -0.00288475 1.91453e-13 3.40383
H 0.195383 -1.04729e-12 4.38289
H 0.850404 -2.4982e-12 2.8852
6
Atoms. Timestep: 1140
O -0.00299949 -2.88032e-13 -0.410313
H 0.199517 1.5818e-12 -1.38852
H 0.848091 3.76567e-12 0.111945
O -0.00299949 2.88031e-13 3.41031
H 0.199517 -1.5818e-12 4.38852
H 0.848091 -3.76566e-12 2.88806
6
Atoms. Timestep: 1150
O -0.00311233 -4.3504e-13 -0.416801
H 0.20362 2.39894e-12 -1.39413
H 0.845779 5.69775e-12 0.109053
O -0.00311233 4.3504e-13 3.4168
H 0.20362 -2.39895e-12 4.39413
H 0.845779 -5.69774e-12 2.89095
6
Atoms. Timestep: 1160
O -0.00322335 -6.59653e-13 -0.423291
H 0.207694 3.65304e-12 -1.39974
H 0.843468 8.65369e-12 0.106127
O -0.00322335 6.59653e-13 3.42329
H 0.207694 -3.65304e-12 4.39974
H 0.843468 -8.65367e-12 2.89387
6
Atoms. Timestep: 1170
O -0.00333264 -1.00412e-12 -0.429783
H 0.211741 5.58517e-12 -1.40533
H 0.841155 1.31924e-11 0.103171
O -0.00333264 1.00412e-12 3.42978
H 0.211741 -5.58517e-12 4.40533
H 0.841155 -1.31924e-11 2.89683
6
Atoms. Timestep: 1180
O -0.00344026 -1.53434e-12 -0.436276
H 0.215763 8.57332e-12 -1.41092
H 0.838841 2.01863e-11 0.100186
O -0.00344026 1.53434e-12 3.43628
H 0.215763 -8.57333e-12 4.41092
H 0.838841 -2.01863e-11 2.89981
6
Atoms. Timestep: 1190
O -0.00354628 -2.3535e-12 -0.442771
H 0.219762 1.32123e-11 -1.41649
H 0.836524 3.10024e-11 0.0971746
O -0.00354628 2.3535e-12 3.44277
H 0.219762 -1.32123e-11 4.41649
H 0.836524 -3.10024e-11 2.90283
6
Atoms. Timestep: 1200
O -0.00365077 -3.6237e-12 -0.449266
H 0.223741 2.04415e-11 -1.42205
H 0.834204 4.77889e-11 0.0941378
O -0.00365077 3.6237e-12 3.44927
H 0.223741 -2.04415e-11 4.42205
H 0.834204 -4.77889e-11 2.90586
6
Atoms. Timestep: 1210
O -0.0037538 -5.60049e-12 -0.455763
H 0.227702 3.17496e-11 -1.42759
H 0.831879 7.39342e-11 0.0910778
O -0.0037538 5.60049e-12 3.45576
H 0.227702 -3.17496e-11 4.42759
H 0.831879 -7.39341e-11 2.90892
6
Atoms. Timestep: 1220
O -0.0038554 -8.68813e-12 -0.462262
H 0.231645 4.95044e-11 -1.43313
H 0.829548 1.148e-10 0.0879963
O -0.0038554 8.68813e-12 3.46226
H 0.231645 -4.95044e-11 4.43313
H 0.829548 -1.148e-10 2.912
6
Atoms. Timestep: 1230
O -0.00395565 -1.35284e-11 -0.468761
H 0.235573 7.74857e-11 -1.43865
H 0.827212 1.78901e-10 0.0848948
O -0.00395565 1.35284e-11 3.46876
H 0.235573 -7.74857e-11 4.43865
H 0.827212 -1.78901e-10 2.91511
6
Atoms. Timestep: 1240
O -0.00405458 -2.11435e-11 -0.475261
H 0.239487 1.21748e-10 -1.44416
H 0.824868 2.79803e-10 0.0817747
O -0.00405458 2.11435e-11 3.47526
H 0.239487 -1.21748e-10 4.44416
H 0.824868 -2.79803e-10 2.91823
6
Atoms. Timestep: 1250
O -0.00415225 -3.31676e-11 -0.481763
H 0.243389 1.92025e-10 -1.44965
H 0.822516 4.39193e-10 0.0786377
O -0.00415225 3.31676e-11 3.48176
H 0.243389 -1.92025e-10 4.44965
H 0.822516 -4.39193e-10 2.92136
6
Atoms. Timestep: 1260
O -0.00424869 -5.22222e-11 -0.488265
H 0.24728 3.04021e-10 -1.45513
H 0.820155 6.91864e-10 0.0754849
O -0.00424869 5.22222e-11 3.48827
H 0.24728 -3.04021e-10 4.45513
H 0.820155 -6.91864e-10 2.92452
6
Atoms. Timestep: 1270
O -0.00434395 -8.25267e-11 -0.494769
H 0.251162 4.83165e-10 -1.4606
H 0.817785 1.09382e-09 0.0723177
O -0.00434395 8.25267e-11 3.49477
H 0.251162 -4.83165e-10 4.4606
H 0.817785 -1.09382e-09 2.92768
6
Atoms. Timestep: 1280
O -0.00443805 -1.30897e-10 -0.501273
H 0.255037 7.70775e-10 -1.46605
H 0.815404 1.73551e-09 0.0691374
O -0.00443805 1.30897e-10 3.50127
H 0.255037 -7.70775e-10 4.46605
H 0.815404 -1.73551e-09 2.93086
6
Atoms. Timestep: 1290
O -0.00453104 -2.08383e-10 -0.507778
H 0.258905 1.23424e-09 -1.47149
H 0.813012 2.76356e-09 0.065945
O -0.00453104 2.08383e-10 3.50778
H 0.258905 -1.23424e-09 4.47149
H 0.813012 -2.76356e-09 2.93406
6
Atoms. Timestep: 1300
O -0.00462295 -3.32958e-10 -0.514284
H 0.262767 1.98384e-09 -1.47691
H 0.810609 4.4164e-09 0.0627416
O -0.00462295 3.32958e-10 3.51428
H 0.262767 -1.98384e-09 4.47691
H 0.810609 -4.4164e-09 2.93726
6
Atoms. Timestep: 1310
O -0.0047138 -5.33965e-10 -0.520791
H 0.266625 3.20074e-09 -1.48232
H 0.808192 7.08318e-09 0.0595282
O -0.0047138 5.33965e-10 3.52079
H 0.266625 -3.20074e-09 4.48232
H 0.808192 -7.08318e-09 2.94047
6
Atoms. Timestep: 1320
O -0.00480362 -8.59476e-10 -0.527298
H 0.270481 5.18361e-09 -1.48771
H 0.805763 1.14012e-08 0.0563059
O -0.00480362 8.59476e-10 3.5273
H 0.270481 -5.18361e-09 4.48771
H 0.805763 -1.14012e-08 2.94369
6
Atoms. Timestep: 1330
O -0.00489243 -1.38853e-09 -0.533806
H 0.274334 8.42659e-09 -1.49309
H 0.803319 1.8418e-08 0.0530755
O -0.00489243 1.38853e-09 3.53381
H 0.274334 -8.42659e-09 4.49309
H 0.803319 -1.8418e-08 2.94692
6
Atoms. Timestep: 1340
O -0.00498025 -2.25155e-09 -0.540315
H 0.278186 1.37503e-08 -1.49845
H 0.800861 2.98609e-08 0.0498379
O -0.00498025 2.25155e-09 3.54032
H 0.278186 -1.37503e-08 4.49845
H 0.800861 -2.98609e-08 2.95016
6
Atoms. Timestep: 1350
O -0.0050671 -3.6645e-09 -0.546825
H 0.282038 2.25225e-08 -1.50379
H 0.798387 4.85891e-08 0.0465939
O -0.0050671 3.6645e-09 3.54682
H 0.282038 -2.25225e-08 4.50379
H 0.798387 -4.85891e-08 2.95341
6