LAMMPS data file via write_data, version 16 Mar 2018, timestep = 60010

750 atoms
2 atom types
500 bonds
1 bond types
250 angles
1 angle types

-2.8447750938921246e+00 1.7188858226023985e+01 xlo xhi
-2.8447750938921246e+00 1.7188858226023985e+01 ylo yhi
-2.8447750938921246e+00 1.7188858226023985e+01 zlo zhi

Masses

1 15.999
2 1.008

Atoms # full

329 110 2 4.0339999999999998e-01 1.2565420193181591e+00 2.5848429852071586e+00 2.9609935099980644e-01 1 0 0
328 110 1 -8.0679999999999996e-01 1.3932077922910784e+00 2.1487865094854932e+00 -5.9340107675079201e-01 1 0 0
330 110 2 4.0339999999999998e-01 8.1535124864722297e-01 1.3352397438790717e+00 -6.5864851601081753e-01 1 0 0
7 3 1 -8.0679999999999996e-01 1.0457563445245461e+00 -2.1191101149417388e+00 1.8376132784485417e+00 0 0 0
9 3 2 4.0339999999999998e-01 1.6400023685338123e+00 -1.3223285821795239e+00 1.7278635575665211e+00 0 0 0
8 3 2 4.0339999999999998e-01 1.2268010500324147e+00 -2.5514123406233673e+00 2.7209994356893725e+00 0 0 0
102 34 2 4.0339999999999998e-01 2.2214615845147874e+00 3.3738062285960018e+00 -1.7512294653285199e+00 0 1 0
166 56 1 -8.0679999999999996e-01 -2.0989393731893369e+00 -1.6140172545738427e+00 1.5776243070123055e+00 1 0 0
32 11 2 4.0339999999999998e-01 -1.5113357088237125e+00 1.0635181203528301e+00 4.3706040337041747e+00 0 0 0
31 11 1 -8.0679999999999996e-01 -1.7870902999213953e+00 1.0308450759981547e-01 4.3310983134181384e+00 0 0 0
33 11 2 4.0339999999999998e-01 -9.8267645165891060e-01 -4.8010504231878537e-01 4.4444179114183484e+00 0 0 0
168 56 2 4.0339999999999998e-01 1.7178045043242353e+01 -1.0446717659978348e+00 1.8991225509706888e+00 0 0 0
663 221 2 4.0339999999999998e-01 -1.7826156570821259e+00 -1.9544514305037830e+00 -2.2530281981167954e+00 0 0 1
661 221 1 -8.0679999999999996e-01 -1.7941637404325230e+00 -1.5125346983318670e+00 -1.3560279764699419e+00 0 0 1
188 63 2 4.0339999999999998e-01 -2.4793217847345925e+00 3.7722051455819789e+00 -1.2474853945055817e+00 0 0 0
53 18 2 4.0339999999999998e-01 -8.6804405485981606e-01 3.8562716721002808e+00 1.7299388765035904e+00 1 0 -1
662 221 2 4.0339999999999998e-01 -2.2610649911733312e+00 -2.1039235535714083e+00 -6.9853617638233922e-01 0 0 1
167 56 2 4.0339999999999998e-01 -1.2547265427297882e+00 -1.0779790551351864e+00 1.5768904051771520e+00 1 0 0
455 152 2 4.0339999999999998e-01 2.1279006202132340e+00 -4.9227096792592651e-01 -2.3253554685605340e+00 0 0 0
314 105 2 4.0339999999999998e-01 3.6521587680773457e+00 1.2788295382119079e+00 -7.5542662246503722e-01 0 0 0
708 236 2 4.0339999999999998e-01 1.2888576008211565e+00 2.2461792221041827e+00 4.2329039905043695e+00 0 0 0
20 7 2 4.0339999999999998e-01 -9.2074775269503917e-02 -1.0774955654359031e+00 -1.1744786959543019e+00 0 0 0
454 152 1 -8.0679999999999996e-01 2.9307460560718201e+00 -8.3520493015989139e-01 -2.8130730627801492e+00 0 0 0
21 7 2 4.0339999999999998e-01 1.1831556004751347e+00 -1.5244277983298913e+00 -2.5701453955110454e-01 0 0 0
19 7 1 -8.0679999999999996e-01 8.4909751460562477e-01 -8.5473469619213005e-01 -9.2030161259215504e-01 0 0 0
232 78 1 -8.0679999999999996e-01 -1.6912445066175319e+00 9.7585121985401990e-01 -2.8338620499722058e+00 1 0 0
189 63 2 4.0339999999999998e-01 -2.0768858465224209e+00 2.6202850054767621e+00 -2.3332232812921774e+00 0 0 0
574 192 1 -8.0679999999999996e-01 2.5897174087120378e+00 1.8966615404746445e-01 2.0613351076566273e+00 0 1 0
706 236 1 -8.0679999999999996e-01 1.6401336900085681e+00 1.3210524827396926e+00 4.3770513616624696e+00 0 0 0
576 192 2 4.0339999999999998e-01 2.2509853552107675e+00 7.7287853845863141e-01 2.7996832258142890e+00 0 1 0
575 192 2 4.0339999999999998e-01 3.4629071702538914e+00 -2.1656166019843770e-01 2.3306895226730138e+00 0 1 0
464 155 2 4.0339999999999998e-01 3.2725294850662623e+00 -2.1232576168670390e+00 4.8213689475111590e+00 0 0 0
283 95 1 -8.0679999999999996e-01 3.6579442434856668e+00 -8.2768872578651420e-01 6.0057571466597821e+00 0 1 0
707 236 2 4.0339999999999998e-01 1.7874899656552135e+00 1.1684397453988380e+00 5.3543069394616669e+00 0 0 0
463 155 1 -8.0679999999999996e-01 3.2298495040428064e+00 -2.6603936015327356e+00 3.9789329936185025e+00 0 0 0
655 219 1 -8.0679999999999996e-01 -2.4617662662927358e+00 3.4299115814650802e+00 2.1302933916288245e+00 1 0 1
653 218 2 4.0339999999999998e-01 -2.4327742800830761e+00 2.7884518649703196e+00 5.8527080681613892e+00 1 0 0
187 63 1 -8.0679999999999996e-01 -2.0613640081080131e+00 3.6012845524536941e+00 -2.1397468164671971e+00 0 0 0
684 228 2 4.0339999999999998e-01 -3.9588080698624051e-01 3.2746545936912259e+00 4.4771451472098995e+00 1 0 0
478 160 1 -8.0679999999999996e-01 1.3707993543731893e+00 3.7992013244807268e+00 6.8431439099097364e+00 1 0 0
682 228 1 -8.0679999999999996e-01 -1.2833660153085986e+00 2.8143438647455667e+00 4.4998916194322804e+00 1 0 0
683 228 2 4.0339999999999998e-01 -1.7907754986254827e+00 3.0261604698613089e+00 3.6646049750632370e+00 1 0 0
600 200 2 4.0339999999999998e-01 -7.0555075932226874e-01 -1.3599625286749772e+00 6.7436832580073602e+00 1 1 0
22 8 1 -8.0679999999999996e-01 -5.8665956711307921e-01 -2.6179940410875613e+00 5.6090063280596123e+00 1 0 -1
560 187 2 4.0339999999999998e-01 -2.7145712330567133e+00 -1.8287013409225124e+00 5.7503036520117305e+00 0 1 0
285 95 2 4.0339999999999998e-01 3.1821820408650225e+00 -2.5080452280519383e-01 6.6697515735818786e+00 0 1 0
233 78 2 4.0339999999999998e-01 -1.7764002879937280e+00 1.2684849702138790e-01 -2.3123486765957626e+00 1 0 0
456 152 2 4.0339999999999998e-01 3.6719110743303256e+00 -1.6709254527058981e-01 -2.7472465127828616e+00 0 0 0
313 105 1 -8.0679999999999996e-01 4.6454323224063465e+00 1.1685825434655923e+00 -7.9129068222701626e-01 0 0 0
315 105 2 4.0339999999999998e-01 4.9755979405043362e+00 1.4120013599036421e+00 -1.7033063300309634e+00 0 0 0
200 67 2 4.0339999999999998e-01 5.2349000437120132e+00 2.2202638321721091e+00 3.0636091664127463e+00 0 0 0
284 95 2 4.0339999999999998e-01 4.6366465087197390e+00 -6.2339331492584638e-01 6.0267798492779772e+00 0 1 0
465 155 2 4.0339999999999998e-01 3.8964216010000863e+00 -2.3061238945543034e+00 3.3230299148244473e+00 0 0 0
605 202 2 4.0339999999999998e-01 5.5057836465644687e+00 1.2977720293302202e+00 8.4392300647521656e-01 0 0 0
606 202 2 4.0339999999999998e-01 6.9344902430478150e+00 1.5499825313550240e+00 1.5941823744098942e+00 0 0 0
604 202 1 -8.0679999999999996e-01 5.9643193893216537e+00 1.3498386766726256e+00 1.7310918866147196e+00 0 0 0
190 64 1 -8.0679999999999996e-01 8.5989865639956840e+00 2.5224047582472195e+00 8.7196530895363145e-01 0 0 0
191 64 2 4.0339999999999998e-01 8.4831427914147781e+00 1.8480631686316480e+00 1.4266550167278558e-01 0 0 0
192 64 2 4.0339999999999998e-01 8.2608388728008393e+00 3.4109427844130691e+00 5.6181950340666154e-01 0 0 0
642 214 2 4.0339999999999998e-01 8.8261610800851784e+00 -1.1665647281472620e+00 5.5781191416944527e+00 0 0 0
619 207 1 -8.0679999999999996e-01 9.3921570256980065e+00 1.6220544523066822e+00 3.5290657929507683e+00 0 0 1
726 242 2 4.0339999999999998e-01 5.5271572381789458e+00 -7.8184724507105674e-02 2.3891450251415973e+00 0 1 0
620 207 2 4.0339999999999998e-01 9.2109718828369402e+00 1.7712874673413417e+00 2.5569882400757047e+00 0 0 1
492 164 2 4.0339999999999998e-01 8.3538462356872483e+00 2.6249847763830942e+00 4.6812873758213041e+00 0 0 0
640 214 1 -8.0679999999999996e-01 8.3673565799298650e+00 -2.9028088769225713e-01 5.4309525552857050e+00 0 0 0
641 214 2 4.0339999999999998e-01 8.8090633389528854e+00 1.9522776779236084e-01 4.6764925395144905e+00 0 0 0
171 57 2 4.0339999999999998e-01 8.2672190915075134e+00 -2.2988500510560614e+00 1.4947893385871618e+00 0 0 0
170 57 2 4.0339999999999998e-01 8.9447981310832994e+00 -1.8452575952411698e+00 2.9100073496174126e+00 0 0 0
169 57 1 -8.0679999999999996e-01 8.0823860200737148e+00 -2.0410390837696157e+00 2.4431581885350555e+00 0 0 0
725 242 2 4.0339999999999998e-01 6.1890517203744242e+00 -1.5223984084620628e+00 2.7684124181753775e+00 0 1 0
724 242 1 -8.0679999999999996e-01 5.3417857300213836e+00 -9.9145367563850684e-01 2.7519284438481249e+00 0 1 0
140 47 2 4.0339999999999998e-01 6.0489443972739600e+00 -2.3338822383794549e+00 -1.4473135351228883e+00 0 1 0
486 162 2 4.0339999999999998e-01 6.7021344248866459e+00 2.5970062209410925e+00 6.4734703339697468e+00 0 0 0
380 127 2 4.0339999999999998e-01 6.8737512802740675e+00 -2.0071593315599756e-01 6.0510734403200264e+00 0 0 0
379 127 1 -8.0679999999999996e-01 6.0090778545682184e+00 -1.5889817733698797e-01 6.5516988161188703e+00 0 0 0
310 104 1 -8.0679999999999996e-01 8.1786005645283844e+00 8.0393449238399306e-01 -1.2523167744339336e+00 0 0 0
312 104 2 4.0339999999999998e-01 7.6129268585970262e+00 -1.8428115349002461e-02 -1.1909469943675990e+00 0 0 0
621 207 2 4.0339999999999998e-01 1.0104728369041116e+01 2.2527469037171102e+00 3.8364795225869299e+00 0 0 1
588 196 2 4.0339999999999998e-01 9.9366410114730250e+00 1.2203286581061432e+00 6.8246727130246665e+00 0 1 0
138 46 2 4.0339999999999998e-01 7.4963108052704310e+00 -2.6804027318963426e+00 -3.1066146123985883e-01 0 1 0
27 9 2 4.0339999999999998e-01 1.0298610822730407e+01 -2.6879052716620171e+00 8.2005564921308327e-01 0 0 0
63 21 2 4.0339999999999998e-01 1.0308061229993935e+01 3.3589360157820272e+00 -9.0553859213058163e-01 -1 0 0
311 104 2 4.0339999999999998e-01 8.9147698381485796e+00 6.5421749909836890e-01 -1.9123718668142133e+00 0 0 0
201 67 2 4.0339999999999998e-01 4.5186496184565916e+00 2.0376420134088455e+00 4.5200898294762926e+00 0 0 0
199 67 1 -8.0679999999999996e-01 5.0028678836580305e+00 2.6767906804448200e+00 3.9225492737806453e+00 0 0 0
490 164 1 -8.0679999999999996e-01 7.6458712474591959e+00 3.2318610509709913e+00 5.0425434543831722e+00 0 0 0
491 164 2 4.0339999999999998e-01 6.7863859339004069e+00 3.0673677130408565e+00 4.5585389038665136e+00 0 0 0
141 47 2 4.0339999999999998e-01 5.7040711290570325e+00 -1.1373090944824693e+00 -3.9044259040612062e-01 0 1 0
139 47 1 -8.0679999999999996e-01 6.4288942350972285e+00 -1.5685668221389741e+00 -9.2773325208839519e-01 0 1 0
437 146 2 4.0339999999999998e-01 7.2056766445443650e+00 -2.2611751901784598e+00 7.1160237644564184e+00 0 1 0
750 250 2 4.0339999999999998e-01 1.6699108717102682e+01 1.6272066262455498e-01 3.2619634008547909e+00 0 1 0
748 250 1 -8.0679999999999996e-01 1.5844733613166358e+01 7.3465263144577797e-02 2.7499961749933641e+00 0 1 0
652 218 1 -8.0679999999999996e-01 1.7035997993532671e+01 2.6057131499161796e+00 6.6574268685530349e+00 0 0 0
282 94 2 4.0339999999999998e-01 1.5511072726358751e+01 1.9705771015617852e+00 5.8113672184462839e+00 0 1 0
466 156 1 -8.0679999999999996e-01 1.0642461629682385e+01 -2.0195741320096712e+00 4.0960699878199982e+00 0 0 0
26 9 2 4.0339999999999998e-01 1.1489896576289027e+01 -1.5718892428136715e+00 7.6485068830454672e-01 0 0 0
25 9 1 -8.0679999999999996e-01 1.1085788290715893e+01 -2.3089157465540580e+00 1.3066273012847374e+00 0 0 0
445 149 1 -8.0679999999999996e-01 1.2276433650221520e+01 -3.5613531628860162e-02 -1.9834271263145098e-01 0 1 0
446 149 2 4.0339999999999998e-01 1.2976734273043091e+01 5.0535370586266648e-01 2.6745368960200189e-01 0 1 0
447 149 2 4.0339999999999998e-01 1.2714184755299566e+01 -6.7561576229103837e-01 -8.2985211101099932e-01 0 1 0
272 91 2 4.0339999999999998e-01 1.4627130765633837e+01 -1.0170580460684255e+00 4.0167837059620553e+00 -1 1 0
85 29 1 -8.0679999999999996e-01 1.1318443670853263e+01 3.2564148426238075e+00 4.7858460345093565e+00 0 0 0
86 29 2 4.0339999999999998e-01 1.2034912623407523e+01 3.1926891743952197e+00 5.4805720419480171e+00 0 0 0
160 54 1 -8.0679999999999996e-01 1.3824822253408019e+01 -1.3016530464320428e+00 -2.4115903213291108e+00 0 0 0
657 219 2 4.0339999999999998e-01 1.6728751312342887e+01 2.8926490103954023e+00 2.1535221128364288e+00 0 0 1
162 54 2 4.0339999999999998e-01 1.4068788470805845e+01 -1.9932821838388270e+00 -1.7317644263392020e+00 0 0 0
749 250 2 4.0339999999999998e-01 1.5392879949738418e+01 9.6398696477042289e-01 2.6967725619821525e+00 0 1 0
61 21 1 -8.0679999999999996e-01 1.0801247875250969e+01 2.6319384171520630e+00 -1.3833199105876179e+00 -1 0 0
62 21 2 4.0339999999999998e-01 1.0907003061312897e+01 1.8449890754699965e+00 -7.7540554598061950e-01 -1 0 0
217 73 1 -8.0679999999999996e-01 1.4897755700334027e+01 2.8439101826975506e+00 2.7669515927925392e+00 -1 0 0
219 73 2 4.0339999999999998e-01 1.4901542769137052e+01 2.5738447609234161e+00 3.7298041830496595e+00 -1 0 0
467 156 2 4.0339999999999998e-01 1.1195490601376676e+01 -1.5915760294097749e+00 4.8109191934530164e+00 0 0 0
468 156 2 4.0339999999999998e-01 1.1242714421213293e+01 -2.4002334818222213e+00 3.3926300079021550e+00 0 0 0
477 159 2 4.0339999999999998e-01 1.2750733805313274e+01 -1.0981569237292721e+00 5.5699071689430255e+00 0 0 0
475 159 1 -8.0679999999999996e-01 1.2329632403532747e+01 -1.0349687865553203e+00 6.4747357937932435e+00 0 0 0
218 73 2 4.0339999999999998e-01 1.4349592890221139e+01 3.6727613359557383e+00 2.6548922713248793e+00 -1 0 0
280 94 1 -8.0679999999999996e-01 1.4751218604470012e+01 1.6831406545661070e+00 5.2282410597426683e+00 0 1 0
281 94 2 4.0339999999999998e-01 1.4246595067887970e+01 9.4552920049764255e-01 5.6769249648983902e+00 0 1 0
507 169 2 4.0339999999999998e-01 1.1930144129960834e+01 1.6289188191165485e+00 -2.4146690874267152e+00 0 0 1
559 187 1 -8.0679999999999996e-01 1.6507435007941350e+01 -2.1183536184592033e+00 6.2576459880745112e+00 -1 1 0
393 131 2 4.0339999999999998e-01 1.3033136131221475e+01 -2.6860020404277165e+00 2.0348273861236121e+00 -1 1 0
273 91 2 4.0339999999999998e-01 1.5092700529306235e+01 -2.0342667843522881e+00 5.2068395142105039e+00 -1 1 0
271 91 1 -8.0679999999999996e-01 1.4314989234290611e+01 -1.7066015399171566e+00 4.6703365209392000e+00 -1 1 0
506 169 2 4.0339999999999998e-01 1.2662786078921631e+01 2.1180838184596551e-01 -2.7650052029593559e+00 0 0 1
290 97 2 4.0339999999999998e-01 1.1746348004993903e+01 1.2437260112155400e+01 1.7266919465441104e+00 -1 0 0
52 18 1 -8.0679999999999996e-01 1.2891045237576559e-01 3.8618061905074335e+00 1.6519344033935370e+00 1 0 -1
54 18 2 4.0339999999999998e-01 5.3354561606766460e-01 4.0092388929631042e+00 2.5544682296130681e+00 1 0 -1
100 34 1 -8.0679999999999996e-01 2.6633376763217385e+00 4.1776949758338375e+00 -2.1494027340288420e+00 0 1 0
193 65 1 -8.0679999999999996e-01 -1.3443116706198799e-01 8.0916856026866402e+00 -2.4541636224320813e+00 0 0 0
612 204 2 4.0339999999999998e-01 1.1847967995320312e+00 4.2545455506235985e+00 5.2587831956137361e+00 0 0 0
610 204 1 -8.0679999999999996e-01 1.1880747129002591e+00 4.3179408575610561e+00 4.2607813478973835e+00 0 0 0
671 224 2 4.0339999999999998e-01 2.0725395049116626e+00 7.2919773772559715e+00 6.6016244109003832e+00 0 0 0
656 219 2 4.0339999999999998e-01 -2.5897360815312749e+00 4.2265132679654629e+00 1.5394586975136777e+00 1 0 1
149 50 2 4.0339999999999998e-01 3.0596393192326250e+00 7.6489879349997629e+00 -1.8155662879239824e+00 1 0 0
339 113 2 4.0339999999999998e-01 -1.9914492903056888e+00 6.8031731280141088e+00 6.5790834096528368e+00 0 0 0
670 224 1 -8.0679999999999996e-01 1.5497229218011412e+00 8.0088289978203449e+00 7.0629491002141798e+00 0 0 0
338 113 2 4.0339999999999998e-01 -1.2522106981545926e+00 6.3514753094507146e+00 5.1944539445302613e+00 0 0 0
134 45 2 4.0339999999999998e-01 3.7109745553761035e+00 1.0064689824820215e+01 8.8669175500541542e-02 0 1 0
164 55 2 4.0339999999999998e-01 2.1323602089755038e+00 7.5231813482349459e+00 3.0834189687572602e+00 0 0 0
165 55 2 4.0339999999999998e-01 2.7784859412426197e+00 6.0951486490162399e+00 2.6241308019785432e+00 0 0 0
220 74 1 -8.0679999999999996e-01 2.9509850576250454e+00 5.6576051273852404e+00 8.7221850823463321e-01 0 0 0
221 74 2 4.0339999999999998e-01 3.0006552782248219e+00 6.4717587202754991e+00 2.9366763466726775e-01 0 0 0
222 74 2 4.0339999999999998e-01 2.6575067805507064e+00 4.8751707306643599e+00 3.2294581236332709e-01 0 0 0
611 204 2 4.0339999999999998e-01 1.9024706234545867e+00 4.9539939438794871e+00 3.9690470081380420e+00 0 0 0
163 55 1 -8.0679999999999996e-01 2.5082471246657150e+00 6.6549931781242258e+00 3.4074437898507863e+00 0 0 0
402 134 2 4.0339999999999998e-01 -1.2498608801215783e-01 4.9073140304293741e+00 1.3409723393384931e-01 0 0 0
400 134 1 -8.0679999999999996e-01 -5.4227068884388308e-01 5.6960392104221764e+00 -3.1736619893281670e-01 0 0 0
401 134 2 4.0339999999999998e-01 9.2533841135909345e-02 6.0672093112145316e+00 -9.9507463810096741e-01 0 0 0
664 222 1 -8.0679999999999996e-01 -6.2712058936225601e-01 8.0731013855981697e+00 1.6678190400729065e+00 0 0 0
665 222 2 4.0339999999999998e-01 -5.6351270154797595e-01 7.1850181625208691e+00 1.2125213715752734e+00 0 0 0
425 142 2 4.0339999999999998e-01 1.9502478738461004e+00 1.0064295973905571e+01 2.2641708853505387e+00 0 1 0
133 45 1 -8.0679999999999996e-01 3.6637203451560945e+00 1.0443045759630085e+01 -8.3580187582963683e-01 0 1 0
337 113 1 -8.0679999999999996e-01 -1.9163187654328302e+00 6.9809594474301164e+00 5.5978689001806607e+00 0 0 0
424 142 1 -8.0679999999999996e-01 2.1806917207564229e+00 9.1437525090885146e+00 1.9486886500678722e+00 0 1 0
426 142 2 4.0339999999999998e-01 1.3520669733886539e+00 8.6823441958318615e+00 1.6316440606038727e+00 0 1 0
581 194 2 4.0339999999999998e-01 -5.4577532020028441e-01 1.0018466025362725e+01 2.7642875043825024e+00 0 0 0
109 37 1 -8.0679999999999996e-01 -2.7842116308360052e+00 9.2954728192139875e+00 -1.5991408550461670e+00 0 0 0
449 150 2 4.0339999999999998e-01 3.8934491114012015e-01 1.0431516890488952e+01 6.5733204389453732e+00 1 0 0
194 65 2 4.0339999999999998e-01 3.5162987570746829e-01 8.9095170856551444e+00 -2.7622706665513999e+00 0 0 0
334 112 1 -8.0679999999999996e-01 3.5657659416309064e+00 6.6214687949489353e+00 6.0485327735560155e+00 0 0 0
335 112 2 4.0339999999999998e-01 3.3833935208189834e+00 6.6010357535804971e+00 5.0654986688517498e+00 0 0 0
423 141 2 4.0339999999999998e-01 3.8313325938969918e+00 8.9757011824621529e+00 2.4516445134883718e+00 -1 0 0
135 45 2 4.0339999999999998e-01 3.4167835272134504e+00 9.7194809428795228e+00 -1.4804017263191400e+00 0 1 0
504 168 2 4.0339999999999998e-01 -2.6867689727750501e+00 5.6615277489459928e+00 -2.0262382264607126e-01 1 0 0
672 224 2 4.0339999999999998e-01 1.4671248675552526e+00 8.8023102128107737e+00 6.4599578902499051e+00 0 0 0
666 222 2 4.0339999999999998e-01 -1.4884443650873496e+00 8.1283536864503620e+00 2.1728966338364382e+00 0 0 0
195 65 2 4.0339999999999998e-01 -1.0137889621695186e+00 8.3554952473178243e+00 -2.0577193903846793e+00 0 0 0
448 150 1 -8.0679999999999996e-01 9.6937478898472351e-01 1.0372349271572810e+01 5.7608565219887602e+00 1 0 0
150 50 2 4.0339999999999998e-01 1.4362013216632974e+00 7.4823491227695804e+00 -1.7493693052828934e+00 1 0 0
148 50 1 -8.0679999999999996e-01 2.2841279247975983e+00 7.4358607724371346e+00 -1.2212666077688101e+00 1 0 0
91 31 1 -8.0679999999999996e-01 4.5464318864326225e+00 7.3608733510519855e+00 -2.6315465453600875e+00 -1 0 0
614 205 2 4.0339999999999998e-01 5.0329877964729492e+00 4.7035208763745811e+00 -2.3138076813389183e+00 0 0 1
336 112 2 4.0339999999999998e-01 4.4206043244347635e+00 7.1114799536771152e+00 6.2193369475324953e+00 0 0 0
613 205 1 -8.0679999999999996e-01 6.0248839224257278e+00 4.8039021195028830e+00 -2.3919046330607130e+00 0 0 1
56 19 2 4.0339999999999998e-01 4.3886907490522100e+00 5.0030047104119140e+00 1.5669839816052642e+00 0 0 0
57 19 2 4.0339999999999998e-01 5.3946625133274910e+00 4.3187078266048653e+00 2.6566903613082804e+00 0 0 0
55 19 1 -8.0679999999999996e-01 5.3452298230209720e+00 4.8148488836543049e+00 1.7898377927972495e+00 0 0 0
422 141 2 4.0339999999999998e-01 4.7813129745728196e+00 7.6760228149053926e+00 2.1758283345226594e+00 -1 0 0
508 170 1 -8.0679999999999996e-01 8.2777605868466431e+00 7.0560383400068378e+00 -2.5330871397691395e+00 1 0 0
700 234 1 -8.0679999999999996e-01 5.3737367281330908e+00 8.3747246640867505e+00 7.0957907082082396e+00 0 0 0
92 31 2 4.0339999999999998e-01 5.2087684056010026e+00 7.9361485951999189e+00 -2.1515442298987679e+00 -1 0 0
305 102 2 4.0339999999999998e-01 6.6466509115737686e+00 4.4566117663583098e+00 5.5407578318872552e-01 0 0 0
347 116 2 4.0339999999999998e-01 1.0016381708987572e+01 5.7521663591252992e+00 3.0646320614655256e+00 0 0 0
306 102 2 4.0339999999999998e-01 7.0146646815450158e+00 5.0170888215208196e+00 -9.3526391803299380e-01 0 0 0
175 59 1 -8.0679999999999996e-01 1.0073325914772150e+01 5.1508342454479781e+00 3.0163309336523758e-01 0 0 0
176 59 2 4.0339999999999998e-01 9.0978565190161262e+00 5.3285448052155484e+00 4.3167798936511526e-01 0 0 0
235 79 1 -8.0679999999999996e-01 7.6494229572842993e+00 8.8523347424255654e+00 3.1487402172733185e+00 0 0 0
237 79 2 4.0339999999999998e-01 8.0090556683045353e+00 9.7725205155421797e+00 2.9939644238422529e+00 0 0 0
236 79 2 4.0339999999999998e-01 6.8494459198099662e+00 8.7044001175254309e+00 2.5672028778515008e+00 0 0 0
565 189 1 -8.0679999999999996e-01 8.2615504309935481e+00 6.2036281299190925e+00 2.9586904055154886e+00 0 0 0
567 189 2 4.0339999999999998e-01 8.1029285124655246e+00 7.1897878108173838e+00 3.0072889370545131e+00 0 0 0
566 189 2 4.0339999999999998e-01 7.4909981624761546e+00 5.7639244679371426e+00 2.4972330040449053e+00 0 0 0
177 59 2 4.0339999999999998e-01 1.0526223212063936e+01 5.1067522979903286e+00 1.1921238914678787e+00 0 0 0
736 246 1 -8.0679999999999996e-01 7.7100980285083214e+00 7.7213319131433416e+00 5.7764395939425039e+00 0 0 0
737 246 2 4.0339999999999998e-01 7.6528432249886045e+00 8.0161552252885642e+00 4.8225870276169998e+00 0 0 0
617 206 2 4.0339999999999998e-01 8.2486200249599388e+00 6.3438752315194318e+00 6.1691941236892340e+00 0 0 0
421 141 1 -8.0679999999999996e-01 4.7724910837773349e+00 8.6376899381447423e+00 2.4499663363172273e+00 -1 0 0
304 102 1 -8.0679999999999996e-01 7.3865101365167085e+00 4.7732338281287214e+00 -3.9551829924635129e-02 0 0 0
258 86 2 4.0339999999999998e-01 7.5237917457428019e+00 9.2059010308349549e+00 -6.4540929249638479e-01 0 0 0
231 77 2 4.0339999999999998e-01 8.7446001700210676e+00 9.5637048381163510e+00 6.4781923101631289e+00 0 0 0
618 206 2 4.0339999999999998e-01 7.9510259289063843e+00 4.8207717765745457e+00 5.6599813629050146e+00 0 0 0
257 86 2 4.0339999999999998e-01 6.6980810997071067e+00 9.6036136261622094e+00 -1.9973441128582261e+00 0 0 0
256 86 1 -8.0679999999999996e-01 6.8063211670041444e+00 8.9163692357315281e+00 -1.2790031728585007e+00 0 0 0
510 170 2 4.0339999999999998e-01 7.6793400029756924e+00 7.7415410285583519e+00 -2.1183435522844505e+00 1 0 0
616 206 1 -8.0679999999999996e-01 8.5619514411149051e+00 5.3948922298797761e+00 6.2051325578379029e+00 0 0 0
127 43 1 -8.0679999999999996e-01 9.5467767181198209e+00 9.5904860209617731e+00 -6.2772500770203665e-01 -1 0 0
128 43 2 4.0339999999999998e-01 9.6724592495448238e+00 8.6000766849261261e+00 -6.8539774133273701e-01 -1 0 0
129 43 2 4.0339999999999998e-01 9.7464992309860250e+00 1.0004593683446304e+01 -1.5157901142301129e+00 -1 0 0
701 234 2 4.0339999999999998e-01 4.8077488614388981e+00 9.1959961042125151e+00 7.1679289198717626e+00 0 0 0
738 246 2 4.0339999999999998e-01 6.8387205149117225e+00 7.8992347170120869e+00 6.2336984149498509e+00 0 0 0
229 77 1 -8.0679999999999996e-01 9.3558288985403220e+00 1.0321785899938556e+01 6.2507155170831901e+00 0 0 0
93 31 2 4.0339999999999998e-01 4.9160055271620129e+00 6.4368320510935462e+00 -2.7295071756832661e+00 -1 0 0
81 27 2 4.0339999999999998e-01 1.0119031957252034e+01 6.6772352233618690e+00 -2.6603763789872912e+00 0 0 0
363 121 2 4.0339999999999998e-01 1.3279833883489168e+01 5.8558227524975379e+00 6.8851104587805807e+00 -1 0 0
502 168 1 -8.0679999999999996e-01 1.6808903826736589e+01 5.4187322895131000e+00 6.0464481926102609e-01 0 0 0
390 130 2 4.0339999999999998e-01 1.4218145612231908e+01 4.3521148052885081e+00 -2.7841234276623679e+00 0 0 0
197 66 2 4.0339999999999998e-01 1.3397681310374864e+01 5.9285477232897232e+00 -1.6894842438344704e+00 0 0 0
198 66 2 4.0339999999999998e-01 1.4626068018813282e+01 5.7825067728674551e+00 -6.2297618423410528e-01 0 0 0
196 66 1 -8.0679999999999996e-01 1.4389674958110422e+01 5.9805460887182988e+00 -1.5742552626758102e+00 0 0 0
111 37 2 4.0339999999999998e-01 1.6603414928548649e+01 8.6019698040283181e+00 -1.9181419713360772e+00 -1 0 0
342 114 2 4.0339999999999998e-01 1.0624586025202838e+01 5.5719466844907775e+00 6.6505288266681344e+00 0 0 0
215 72 2 4.0339999999999998e-01 1.5584355511489790e+01 6.5705307810187570e+00 -2.6484383632710440e+00 -1 0 0
87 29 2 4.0339999999999998e-01 1.1401636480136142e+01 4.1261324365102245e+00 4.2993243919160173e+00 0 0 0
348 116 2 4.0339999999999998e-01 1.1157304111738547e+01 6.9019642267940267e+00 2.8549604594547890e+00 0 0 0
384 128 2 4.0339999999999998e-01 1.0927284455131078e+01 1.0430575869070195e+01 3.0314705665533657e+00 0 0 0
346 116 1 -8.0679999999999996e-01 1.0997961467848931e+01 5.9223794584536229e+00 2.9776667156392795e+00 0 0 0
503 168 2 4.0339999999999998e-01 1.6851948005229506e+01 6.1633332441035762e+00 1.2707909692837696e+00 0 0 0
317 106 2 4.0339999999999998e-01 1.1469085526883791e+01 6.2968115521588697e+00 7.9095326687951495e-02 0 0 0
341 114 2 4.0339999999999998e-01 1.1536453574454633e+01 6.9060656992945919e+00 6.4131995988350408e+00 0 0 0
110 37 2 4.0339999999999998e-01 1.6748092839861471e+01 1.0044755095573459e+01 -1.1663837460987345e+00 -1 0 0
254 85 2 4.0339999999999998e-01 1.6347906684220465e+01 7.2043472231201289e+00 5.3261168870127857e+00 -1 0 0
223 75 1 -8.0679999999999996e-01 1.7072279358560774e+01 7.5486244996530054e+00 2.6099346492154041e+00 -1 0 0
253 85 1 -8.0679999999999996e-01 1.5486184998975755e+01 6.9300167265116812e+00 4.8992532431285145e+00 -1 0 0
316 106 1 -8.0679999999999996e-01 1.1705624247720360e+01 7.2025658873148437e+00 -2.7260327645334970e-01 0 0 0
318 106 2 4.0339999999999998e-01 1.1375959061965533e+01 7.2922744964909345e+00 -1.2124471758543010e+00 0 0 0
255 85 2 4.0339999999999998e-01 1.4938118964230309e+01 6.4123769736274934e+00 5.5562970756281906e+00 -1 0 0
69 23 2 4.0339999999999998e-01 1.4007134161955786e+01 9.0852809753385380e+00 1.2579638759767624e+00 -1 0 0
377 126 2 4.0339999999999998e-01 1.5824306923986331e+01 1.0369370284868776e+01 1.0843945440530653e+00 -1 0 0
378 126 2 4.0339999999999998e-01 1.5636988028614311e+01 1.0168000428510933e+01 2.6943835253335191e+00 -1 0 0
225 75 2 4.0339999999999998e-01 1.6508990143721853e+01 8.2897099909940746e+00 2.2445133757766564e+00 -1 0 0
68 23 2 4.0339999999999998e-01 1.2677908551755605e+01 8.3025145996912482e+00 7.2117893976541714e-01 -1 0 0
67 23 1 -8.0679999999999996e-01 1.3134797559080626e+01 8.6775435691714247e+00 1.5278009225490949e+00 -1 0 0
224 75 2 4.0339999999999998e-01 1.6574119667500522e+01 7.0789407323068509e+00 3.3388158370700758e+00 -1 0 0
383 128 2 4.0339999999999998e-01 1.2317210446448213e+01 9.8637768104164962e+00 2.3876177032795125e+00 0 0 0
539 180 2 4.0339999999999998e-01 1.4463225684140255e+01 6.2050629775333519e+00 3.6834396710625548e+00 0 0 0
538 180 1 -8.0679999999999996e-01 1.3936321301539998e+01 5.5429470315673388e+00 3.1505160382521629e+00 0 0 0
540 180 2 4.0339999999999998e-01 1.2996481327288738e+01 5.8689626038147384e+00 3.0483027637564115e+00 0 0 0
376 126 1 -8.0679999999999996e-01 1.5711609812872240e+01 9.6965797257148942e+00 1.8156184168446297e+00 -1 0 0
340 114 1 -8.0679999999999996e-01 1.1552136823915189e+01 5.9090626502399939e+00 6.4891727788467790e+00 0 0 0
146 49 2 4.0339999999999998e-01 1.5563428510690198e+01 9.9517901395276720e+00 4.7724036862000894e+00 -1 0 0
23 8 2 4.0339999999999998e-01 -9.4016860818388870e-01 1.7068555894444206e+01 4.7403302458164243e+00 1 -1 -1
24 8 2 4.0339999999999998e-01 3.3412736148598432e-01 1.7056767511367344e+01 5.7619624355702150e+00 1 -1 -1
523 175 1 -8.0679999999999996e-01 2.9712231769960695e+00 1.2776532645174465e+01 -2.1573163607554942e+00 0 0 1
516 172 2 4.0339999999999998e-01 1.5398243751028861e+01 1.5725337255708212e+01 2.2701554600769063e+00 -1 0 0
582 194 2 4.0339999999999998e-01 -6.6055346327877773e-01 1.1501329723273150e+01 3.4393004116918968e+00 0 0 0
580 194 1 -8.0679999999999996e-01 -7.6072788685840553e-02 1.0889882708209743e+01 2.9058702677524453e+00 0 0 0
527 176 2 4.0339999999999998e-01 1.5254597296776717e-01 1.1178536655890175e+01 -2.4636033282627130e+00 0 0 0
406 136 1 -8.0679999999999996e-01 -2.0304244634026358e+00 1.3590116896723746e+01 -2.7513616422444040e+00 0 0 0
528 176 2 4.0339999999999998e-01 1.7447118704996774e+00 1.1486630545280313e+01 -2.6579919988847158e+00 0 0 0
590 197 2 4.0339999999999998e-01 -3.5349381372331479e-01 1.3932666592040107e+01 4.4179652967551357e+00 0 0 0
105 35 2 4.0339999999999998e-01 2.3353768192981716e+00 1.4710857004555720e+01 -2.5634562999566679e-02 0 0 0
450 150 2 4.0339999999999998e-01 4.2577842910455566e-01 1.0577553964494145e+01 4.9469603714173829e+00 1 0 0
694 232 1 -8.0679999999999996e-01 -1.8566802936401068e+00 1.3046488022312065e+01 1.4810633142352270e-01 0 0 0
695 232 2 4.0339999999999998e-01 -2.5016876012029163e+00 1.3705856820375928e+01 5.3441116777722586e-01 0 0 0
321 107 2 4.0339999999999998e-01 -1.8015490026076557e+00 1.7103250988126042e+01 2.6519051225637140e+00 0 -1 0
103 35 1 -8.0679999999999996e-01 1.4799368928957115e+00 1.4431867969214643e+01 -4.6200728784671918e-01 0 0 0
104 35 2 4.0339999999999998e-01 1.6814311926170467e+00 1.3850222143652530e+01 -1.2501199311590561e+00 0 0 0
520 174 1 -8.0679999999999996e-01 -4.6575965713909895e-01 1.3835363122129042e+01 6.6527766347696637e+00 0 0 0
319 107 1 -8.0679999999999996e-01 -1.5622158671708619e+00 1.6331321014739572e+01 3.2408691181174758e+00 0 -1 0
278 93 2 4.0339999999999998e-01 -3.9529060680609440e-01 1.6628986766179349e+01 1.0379016523832405e+00 0 0 0
279 93 2 4.0339999999999998e-01 5.9772821174658652e-02 1.5395414316711719e+01 6.8923896126321438e-02 0 0 0
277 93 1 -8.0679999999999996e-01 -6.9396358515751722e-01 1.6004223165535063e+01 3.1644609615813923e-01 0 0 0
407 136 2 4.0339999999999998e-01 -1.8143011021790107e+00 1.3528060851912937e+01 -1.7769525027527531e+00 0 0 0