LAMMPS data file via write_data, version 16 Mar 2018, timestep = 92600

750 atoms
2 atom types
500 bonds
1 bond types
250 angles
1 angle types

-5.2752168190926207e+00 1.9619299951208077e+01 xlo xhi
-5.2752168190926207e+00 1.9619299951208077e+01 ylo yhi
-5.2752168190926207e+00 1.9619299951208077e+01 zlo zhi

Masses

1 15.999
2 1.008

Atoms # full

161 54 2 4.0339999999999998e-01 -9.3235426260492282e-01 -3.8248160158550277e+00 -2.9039169251715879e-01 1 0 0
162 54 2 4.0339999999999998e-01 -9.2730712805901483e-01 -3.8659186933740788e+00 -2.5141760138736213e-01 1 0 0
202 68 1 -8.0679999999999996e-01 -1.3526723276400521e-01 -4.7612251710168705e+00 -9.7886291502824108e-01 1 1 0
686 229 2 4.0339999999999998e-01 -2.8451315337191474e+00 -3.0972284064687980e+00 9.6832697079316254e-01 1 1 1
687 229 2 4.0339999999999998e-01 -2.7743780489843308e+00 -2.9440374108413057e+00 1.0519921416921534e+00 1 1 1
160 54 1 -8.0679999999999996e-01 -1.6436313852350226e+00 -3.3259741635682403e+00 2.7884833302581846e-01 1 0 0
621 207 2 4.0339999999999998e-01 2.1639353988466574e+00 -1.5373880629923153e-01 -2.7084023808131352e+00 1 0 1
620 207 2 4.0339999999999998e-01 2.1213542008925623e+00 -2.2560629201090343e-01 -2.6668198025767036e+00 1 0 1
619 207 1 -8.0679999999999996e-01 2.3657036055025440e+00 2.8968701538084396e-01 -1.7944172764194173e+00 1 0 1
288 96 2 4.0339999999999998e-01 2.7182818717041464e+00 4.8410988397982990e-01 -4.1827799717132308e-01 0 1 0
597 199 2 4.0339999999999998e-01 5.7855115844656710e+00 -1.2411731835951976e+00 -3.6895004147864441e-01 0 1 1
720 240 2 4.0339999999999998e-01 4.9413271109449797e+00 -2.5748297321366693e+00 1.4808193285771027e+00 0 1 1
719 240 2 4.0339999999999998e-01 4.8269208892135245e+00 -2.5014385305489468e+00 1.5439277746478295e+00 0 1 1
595 199 1 -8.0679999999999996e-01 5.3373860113110636e+00 -1.7837996641512595e+00 3.8983552990344528e-01 0 1 1
596 199 2 4.0339999999999998e-01 5.7876851500986399e+00 -1.2330686238854165e+00 -3.5536675635220227e-01 0 1 1
35 12 2 4.0339999999999998e-01 3.2726142046000719e+00 1.2956709908577846e-01 1.8777754143179983e+00 0 0 -1
287 96 2 4.0339999999999998e-01 2.7026152566285297e+00 3.9767821058269881e-01 -4.3144118636151152e-01 0 1 0
286 96 1 -8.0679999999999996e-01 2.9867235424719185e+00 4.4752855913437450e-01 5.7673419923867453e-01 0 1 0
36 12 2 4.0339999999999998e-01 3.3089419705492729e+00 2.0630048566906112e-01 1.8929186874950590e+00 0 0 -1
298 100 1 -8.0679999999999996e-01 6.5570457011383523e+00 -6.3690277574607013e-01 -1.4043782224904033e+00 1 1 0
203 68 2 4.0339999999999998e-01 7.9425201721731842e-01 -5.2134059736806657e+00 -1.0257825025744713e+00 1 1 0
649 217 1 -8.0679999999999996e-01 1.9568943075374481e+00 -9.2248559332463653e-01 -3.8695886835667039e+00 1 -1 1
79 27 1 -8.0679999999999996e-01 8.4600091517803939e+00 -3.5486083862193407e+00 1.1026464231167754e-01 0 0 0
381 127 2 4.0339999999999998e-01 8.7468892210352500e+00 -3.6273733085757609e+00 -1.2709995430333016e+00 0 0 1
380 127 2 4.0339999999999998e-01 8.6541163513170574e+00 -3.6255490575726244e+00 -1.2748670457106543e+00 0 0 1
97 33 1 -8.0679999999999996e-01 1.0637217463154936e+01 5.9476250969471955e-02 -3.7433377732237880e+00 -1 0 0
98 33 2 4.0339999999999998e-01 1.1648885779080480e+01 -6.8541859982333087e-02 -3.9043697417060681e+00 -1 0 0
99 33 2 4.0339999999999998e-01 1.1575420149754390e+01 -1.2299706839286451e-01 -4.1304862067365651e+00 -1 0 0
300 100 2 4.0339999999999998e-01 7.2629532129027234e+00 -1.7532431679646265e-01 -2.0188086719715717e+00 1 1 0
299 100 2 4.0339999999999998e-01 7.3206593165650959e+00 -3.3151828018173202e-01 -2.0335388187191819e+00 1 1 0
51 17 2 4.0339999999999998e-01 9.2742343133639196e+00 2.5427164358352439e-01 -3.2255959434097017e+00 0 0 0
50 17 2 4.0339999999999998e-01 9.2527908670952286e+00 1.6520918208320534e-01 -3.2560826234384943e+00 0 0 0
505 169 1 -8.0679999999999996e-01 8.0170761652008018e+00 -2.9975682879996239e+00 2.4809586387062064e+00 0 0 1
81 27 2 4.0339999999999998e-01 8.3032100553729045e+00 -3.3613017524611801e+00 1.1180362467075264e+00 0 0 0
80 27 2 4.0339999999999998e-01 8.3086957432426907e+00 -3.4387180321249353e+00 1.1393494785817984e+00 0 0 0
49 17 1 -8.0679999999999996e-01 8.3283102489556207e+00 2.1422722835402297e-01 -2.8008537127410107e+00 0 0 0
211 71 1 -8.0679999999999996e-01 1.3071545455008003e+01 -2.6333475528361561e-01 -4.5083511684997477e+00 -1 1 1
688 230 1 -8.0679999999999996e-01 1.6729134102502556e+01 -2.1679323077432646e+00 4.4703859605668583e-01 0 1 0
405 135 2 4.0339999999999998e-01 1.8829844317819500e+01 -4.6612514221723798e+00 -6.9136243065919256e-01 -1 1 0
404 135 2 4.0339999999999998e-01 1.8796488737771050e+01 -4.5961401416779282e+00 -7.9807134789904666e-01 -1 1 0
689 230 2 4.0339999999999998e-01 1.7280545167142684e+01 -2.9829085257172596e+00 1.1540498297028456e-01 0 1 0
690 230 2 4.0339999999999998e-01 1.7332000658819943e+01 -3.0004812125348717e+00 2.9238146068021909e-01 0 1 0
403 135 1 -8.0679999999999996e-01 1.8066745092148484e+01 -4.0974795232306569e+00 -2.5538647024157957e-01 -1 1 0
64 22 1 -8.0679999999999996e-01 1.6103033109385869e+01 3.2906486964808312e-01 3.8966999374019995e-01 0 1 0
66 22 2 4.0339999999999998e-01 1.6228286760736324e+01 -6.8196211915327787e-01 5.2018219212193806e-01 0 1 0
65 22 2 4.0339999999999998e-01 1.6153814790872694e+01 -6.8843036352876030e-01 5.2261584853224718e-01 0 1 0
443 148 2 4.0339999999999998e-01 -4.7570972608162521e-01 -2.7759995441756136e-01 6.4816163284547761e+00 1 1 -1
42 14 2 4.0339999999999998e-01 -4.2578907200507867e+00 5.3465996556855364e+00 -4.2501662890444116e+00 1 0 0
41 14 2 4.0339999999999998e-01 -4.2143524680471689e+00 5.2960593371294431e+00 -4.2231242856656266e+00 1 0 0
749 250 2 4.0339999999999998e-01 -3.3801258253754600e+00 5.0796629293992419e+00 -4.5215504898326220e-01 1 1 0
750 250 2 4.0339999999999998e-01 -3.3533921946821152e+00 5.1074786395259251e+00 -4.0174563845493605e-01 1 1 0
337 113 1 -8.0679999999999996e-01 -2.8149116406983334e+00 3.9299590818099022e+00 1.5635055741956450e-01 0 0 0
338 113 2 4.0339999999999998e-01 -2.4772192035496605e+00 3.0039796743762688e+00 4.8733862888821111e-01 0 0 0
662 221 2 4.0339999999999998e-01 -4.1395515450514324e+00 9.8042106146113461e-01 -4.9234598842531270e+00 0 0 1
175 59 1 -8.0679999999999996e-01 1.9520691888400250e+01 1.7343132015244338e+00 -4.6055214600466714e+00 0 0 0
663 221 2 4.0339999999999998e-01 -4.1879095042139642e+00 9.9957686731531936e-01 -4.9936475413458696e+00 0 0 1
444 148 2 4.0339999999999998e-01 -3.9921608536663467e-01 -2.9825686916506111e-01 6.4537846981248306e+00 1 1 -1
700 234 1 -8.0679999999999996e-01 5.3259085508026862e+00 3.9527706480320139e+00 -4.0429286796234063e+00 0 0 0
701 234 2 4.0339999999999998e-01 6.2146367784519407e+00 3.6099361622702046e+00 -4.4638976562693813e+00 0 0 0
702 234 2 4.0339999999999998e-01 6.2392259850129070e+00 3.6728593253459207e+00 -4.4441626567655597e+00 0 0 0
233 78 2 4.0339999999999998e-01 4.5735139793825725e+00 4.8740782870763217e+00 -3.4359356441794473e+00 1 0 0
234 78 2 4.0339999999999998e-01 4.4361607951675639e+00 4.8398038777540515e+00 -3.5114843523572739e+00 1 0 0
529 177 1 -8.0679999999999996e-01 3.2168992455656626e+00 7.7771634299543573e+00 -1.9305941289726531e+00 0 0 0
232 78 1 -8.0679999999999996e-01 4.0253845821461871e+00 5.6493961040394547e+00 -3.0041160452608522e+00 1 0 0
531 177 2 4.0339999999999998e-01 3.5758761737520510e+00 6.8906805380359293e+00 -2.3338079472234741e+00 0 0 0
530 177 2 4.0339999999999998e-01 3.4155999339588421e+00 6.8688109644832140e+00 -2.3781272723933982e+00 0 0 0
613 205 1 -8.0679999999999996e-01 7.3919354950480338e+00 3.1739124702115609e+00 -4.9763024428612308e+00 0 0 1
615 205 2 4.0339999999999998e-01 8.3988990741119451e+00 2.9282838483516640e+00 -4.8850390553051053e+00 0 0 1
614 205 2 4.0339999999999998e-01 8.4287991468862771e+00 3.0231378668086437e+00 -4.9358477628752162e+00 0 0 1
565 189 1 -8.0679999999999996e-01 9.7312997591213843e+00 2.8846310540614892e+00 -4.7280811485220342e+00 0 0 0
566 189 2 4.0339999999999998e-01 1.0715856572273918e+01 3.1952726154365427e+00 -4.6158683020715934e+00 0 0 0
567 189 2 4.0339999999999998e-01 1.0747693638899491e+01 3.0043276349000196e+00 -4.5590331062326097e+00 0 0 0
74 25 2 4.0339999999999998e-01 1.2979453708075219e+01 3.8455486904821070e+00 -4.0388122812826541e+00 0 0 -1
73 25 1 -8.0679999999999996e-01 1.2048321972208843e+01 3.3882307747740166e+00 -4.1385679498004215e+00 0 0 -1
75 25 2 4.0339999999999998e-01 1.2907651790451776e+01 3.9468051768998018e+00 -4.0064558174246283e+00 0 0 -1
382 128 1 -8.0679999999999996e-01 9.6976078465436402e+00 5.9737839022912356e+00 -3.2086226044105568e+00 0 0 0
127 43 1 -8.0679999999999996e-01 1.0186687576519983e+01 3.1373202285939685e+00 -1.4264128844487742e+00 -1 0 0
128 43 2 4.0339999999999998e-01 9.1645132025833647e+00 3.0169001397548305e+00 -1.5309295174690640e+00 -1 0 0
129 43 2 4.0339999999999998e-01 9.1852520027699960e+00 3.3858741066957139e+00 -1.3959022550626354e+00 -1 0 0
68 23 2 4.0339999999999998e-01 1.1734029141956441e+01 2.9265697217824203e+00 -1.2383763366506217e+00 -1 0 0
69 23 2 4.0339999999999998e-01 1.1661613667255157e+01 2.8098536064520152e+00 -1.1348966194437828e+00 -1 0 0
107 36 2 4.0339999999999998e-01 1.2471670402367550e+01 5.8853458327068635e+00 -1.2529595842960166e+00 0 0 -1
108 36 2 4.0339999999999998e-01 1.2463883940629934e+01 5.8867826605380751e+00 -1.2370451566892813e+00 0 0 -1
106 36 1 -8.0679999999999996e-01 1.1804229767846703e+01 5.7418768831139948e+00 -2.0257389310928264e+00 0 0 -1
384 128 2 4.0339999999999998e-01 1.0617611953666216e+01 5.7721777676893593e+00 -2.7678564310753138e+00 0 0 0
383 128 2 4.0339999999999998e-01 1.0650089702081523e+01 5.9079961644332135e+00 -2.8029421809549175e+00 0 0 0
532 178 1 -8.0679999999999996e-01 1.3529018212916771e+01 5.9124619972546499e+00 -3.4648695526770013e-01 0 0 0
691 231 1 -8.0679999999999996e-01 7.6843600528549585e+00 3.1031929983765290e+00 -1.3795726853442836e+00 -1 1 0
67 23 1 -8.0679999999999996e-01 1.2609911090874913e+01 2.6043140433552701e+00 -7.9452305750459473e-01 -1 0 0
562 188 1 -8.0679999999999996e-01 1.6616347077608197e+01 2.4374630575446936e+00 -6.8239468315988638e-01 0 1 0
563 188 2 4.0339999999999998e-01 1.6432842322234240e+01 1.5656549150240870e+00 -1.5524981694182394e-01 0 1 0
564 188 2 4.0339999999999998e-01 1.6429324157768235e+01 1.5510656608465201e+00 -1.7001678608021464e-01 0 1 0
571 191 1 -8.0679999999999996e-01 1.7158812683962285e+01 2.1541462779312894e+00 -5.0625822858451297e+00 -1 1 1
553 185 1 -8.0679999999999996e-01 1.4163423140634052e+01 4.5899583154369621e+00 -3.7656234301136275e+00 -1 0 1
326 109 2 4.0339999999999998e-01 1.7335860915438577e+01 3.4227650553497062e+00 -1.4461330243074650e+00 0 0 1
327 109 2 4.0339999999999998e-01 1.7340523262879739e+01 3.3508840555014165e+00 -1.5470388442116851e+00 0 0 1
555 185 2 4.0339999999999998e-01 1.4925919907487472e+01 5.2879053438050567e+00 -3.6331905355893284e+00 -1 0 1
554 185 2 4.0339999999999998e-01 1.4905331237399658e+01 5.2920547678175049e+00 -3.5630272405717309e+00 -1 0 1
322 108 1 -8.0679999999999996e-01 1.6063455177799764e+01 6.0615831159036526e+00 -3.1919685017899977e+00 0 0 0
325 109 1 -8.0679999999999996e-01 1.7943104682648208e+01 4.0953439193922536e+00 -1.9329405512949691e+00 0 0 1
389 130 2 4.0339999999999998e-01 1.8746892900210465e+01 4.5774291285659663e+00 -2.8443366324227792e+00 0 0 0
388 130 1 -8.0679999999999996e-01 1.9511266855062747e+01 4.9466789108240112e+00 -3.4553432125746841e+00 0 0 0
390 130 2 4.0339999999999998e-01 1.8807278955281660e+01 4.5715578351929897e+00 -2.7794391635771145e+00 0 0 0
303 101 2 4.0339999999999998e-01 1.3472435653813950e+01 2.3448388911741835e+00 2.4687616696899539e-01 -1 0 1
302 101 2 4.0339999999999998e-01 1.3481160428562308e+01 2.4480685298994898e+00 2.7474154182006938e-01 -1 0 1
177 59 2 4.0339999999999998e-01 1.8516561838522300e+01 1.7689918215593501e+00 -4.8641265623652927e+00 0 0 0
176 59 2 4.0339999999999998e-01 1.8489485738284532e+01 1.7855669431231123e+00 -4.6878917619753127e+00 0 0 0
725 242 2 4.0339999999999998e-01 1.8470561382546089e+00 1.6212598949280718e+01 -5.2413524176431254e+00 0 0 0
274 92 1 -8.0679999999999996e-01 1.5964907543572330e+01 -3.8930251992946650e+00 6.7270760223114179e+00 0 1 -1
139 47 1 -8.0679999999999996e-01 9.8411789665266234e+00 -3.5924208916983451e+00 -4.6658210708560190e+00 0 1 0
257 86 2 4.0339999999999998e-01 9.5284498394873722e+00 1.1003338747423523e+01 -4.6082585663747127e+00 0 0 0
40 14 1 -8.0679999999999996e-01 -3.3642956311383827e+00 5.4685505893058677e+00 -4.7743584482136772e+00 1 0 0
342 114 2 4.0339999999999998e-01 -4.1800692481785902e+00 6.8734870908183749e+00 -1.7674065725288397e+00 1 0 0
340 114 1 -8.0679999999999996e-01 -4.4011553649586101e+00 7.6444755576061789e+00 -2.4320010699640608e+00 1 0 0
126 42 2 4.0339999999999998e-01 -4.7295485420933989e+00 8.9529050986131722e+00 -3.1683728592005158e+00 0 1 0
125 42 2 4.0339999999999998e-01 -4.8104590565770513e+00 8.8547264911306947e+00 -3.3089174853690331e+00 0 1 0
124 42 1 -8.0679999999999996e-01 -4.7897577776804097e+00 9.7829065806127460e+00 -3.7768853740958845e+00 0 1 0
54 18 2 4.0339999999999998e-01 1.6198953803012028e+01 1.5722064197738401e+00 6.8849408161610315e+00 0 0 -1
258 86 2 4.0339999999999998e-01 9.5821666673347536e+00 1.1063507673437076e+01 -4.5955185472100366e+00 0 0 0
607 203 1 -8.0679999999999996e-01 -1.3855422220237612e+00 8.8027428949791116e+00 -4.2155193386975371e+00 0 -1 0
609 203 2 4.0339999999999998e-01 -9.8838813634900102e-01 8.5953849823953270e+00 -3.2860647693561447e+00 0 -1 0
608 203 2 4.0339999999999998e-01 -1.1123463537745168e+00 8.7253658643537584e+00 -3.2260041639826627e+00 0 -1 0
167 56 2 4.0339999999999998e-01 -4.9607990649343918e+00 1.0263593330761449e+01 -5.1056583850487804e+00 1 0 0
168 56 2 4.0339999999999998e-01 -5.0626904464351279e+00 1.0282820869578970e+01 -5.0788696642791988e+00 1 0 0
748 250 1 -8.0679999999999996e-01 -3.7593180456572561e+00 5.9837213782193155e+00 -7.7483365675465699e-01 1 1 0
341 114 2 4.0339999999999998e-01 -4.0875037825538474e+00 7.0140026742238097e+00 -1.6835787652710295e+00 1 0 0
148 50 1 -8.0679999999999996e-01 -4.3683456082538541e-01 8.3102987425212582e+00 -1.9197371704507016e+00 1 0 0
150 50 2 4.0339999999999998e-01 -1.1386111556220158e-01 8.0755210035328489e+00 -9.5922911754251317e-01 1 0 0
149 50 2 4.0339999999999998e-01 -5.9466669650793946e-02 8.1026632710400506e+00 -9.7410490439193254e-01 1 0 0
266 89 2 4.0339999999999998e-01 4.0435284289549864e+00 1.2140044069184000e+01 -3.8580752344018601e+00 0 0 0
625 209 1 -8.0679999999999996e-01 4.6709838687714713e+00 1.0899086422616680e+01 -3.6129145466498200e+00 0 -1 1
626 209 2 4.0339999999999998e-01 5.0724727700027818e+00 9.9456069823192053e+00 -3.6933575750232928e+00 0 -1 1
627 209 2 4.0339999999999998e-01 5.1791583085954604e+00 9.9867809015140132e+00 -3.6286848042439805e+00 0 -1 1
267 89 2 4.0339999999999998e-01 4.0327418988387729e+00 1.2146184666911047e+01 -3.7746163661603607e+00 0 0 0
265 89 1 -8.0679999999999996e-01 3.4451377042279185e+00 1.2956666339866455e+01 -4.0779290877194185e+00 0 0 0
407 136 2 4.0339999999999998e-01 3.2234225846189650e+00 1.1287792601129219e+01 -4.7801871136458107e-01 0 0 0
408 136 2 4.0339999999999998e-01 3.2798538937687267e+00 1.1241229100365299e+01 -3.1532389126495275e-01 0 0 0
406 136 1 -8.0679999999999996e-01 3.4735343107226155e+00 1.2257761423069244e+01 -1.9112882296060274e-01 0 0 0
464 155 2 4.0339999999999998e-01 3.4951680386918929e+00 1.3670695326288033e+01 -2.9649482918098258e-01 0 -1 0
465 155 2 4.0339999999999998e-01 3.3538382544532199e+00 1.3664154534963028e+01 -2.5944944856148044e-01 0 -1 0
242 81 2 4.0339999999999998e-01 6.3728727311367672e+00 7.9456334856942012e+00 -3.4703784566373148e+00 -1 0 0
370 124 1 -8.0679999999999996e-01 7.4449523578445094e+00 7.0150366724216040e+00 -3.2289983528975492e+00 0 0 0
241 81 1 -8.0679999999999996e-01 5.7467432605793212e+00 8.7435438398845946e+00 -3.5974347781732647e+00 -1 0 0
243 81 2 4.0339999999999998e-01 6.5002502730999785e+00 8.0400898570837072e+00 -3.5487820426936061e+00 -1 0 0
134 45 2 4.0339999999999998e-01 3.0359162538405373e+00 8.9506607252707688e+00 -1.3770407847356312e+00 0 1 0
135 45 2 4.0339999999999998e-01 3.1602902306615261e+00 8.9262945385501311e+00 -1.3297638912911540e+00 0 1 0
133 45 1 -8.0679999999999996e-01 3.0233207517382334e+00 9.8895852565846347e+00 -9.3061080272133001e-01 0 1 0
709 237 1 -8.0679999999999996e-01 3.6671227255020078e-01 7.9357253392914631e+00 2.9771900487326430e-01 0 0 0
357 119 2 4.0339999999999998e-01 1.0966040148194065e+01 9.1203908418991269e+00 -4.6542245098842576e+00 0 0 1
371 124 2 4.0339999999999998e-01 8.3542763534287232e+00 6.5118117550108119e+00 -3.2898620770024491e+00 0 0 0
372 124 2 4.0339999999999998e-01 8.3037465403284152e+00 6.4506881971302343e+00 -3.1983714666114906e+00 0 0 0
369 123 2 4.0339999999999998e-01 1.7318673936071864e+01 -3.5559585638923035e+00 6.1695688183997417e+00 -1 1 0
356 119 2 4.0339999999999998e-01 1.1074089922825952e+01 9.1499019582512595e+00 -4.5533156076590409e+00 0 0 1
641 214 2 4.0339999999999998e-01 1.4048305344042475e+01 1.7776450663913014e+01 3.4722616739945158e+00 0 -1 0
324 108 2 4.0339999999999998e-01 1.6570048559260808e+01 6.6502412958260129e+00 -2.4956437207596545e+00 0 0 0
323 108 2 4.0339999999999998e-01 1.6680895917509758e+01 6.5510063709254753e+00 -2.5151137647428707e+00 0 0 0
737 246 2 4.0339999999999998e-01 1.8145057182284273e+01 7.4800076511871039e+00 -8.9545215664646793e-01 0 0 0
738 246 2 4.0339999999999998e-01 1.8068767343955557e+01 7.6323354632973457e+00 -9.3980734407146826e-01 0 0 0
736 246 1 -8.0679999999999996e-01 1.7411879316486047e+01 7.0579197991664477e+00 -1.5024921471595922e+00 0 0 0
82 28 1 -8.0679999999999996e-01 1.8981917367728997e+01 8.0993679926952353e+00 1.0908485549837366e-01 0 0 0
83 28 2 4.0339999999999998e-01 -5.2444033673268535e+00 8.2882251304926378e+00 8.9974499274593001e-01 1 0 0
516 172 2 4.0339999999999998e-01 -4.7200873544821782e+00 1.9058704494147456e+01 -2.2743118483202793e+00 0 0 0
514 172 1 -8.0679999999999996e-01 -5.1722388715048311e+00 1.9568964010932255e+01 -1.4845439447187916e+00 0 0 0
515 172 2 4.0339999999999998e-01 -4.5674800654351912e+00 1.9026803198360422e+01 -2.1492297417119879e+00 0 0 0
712 238 1 -8.0679999999999996e-01 -4.0273688309843250e+00 1.8580946507615582e+01 -3.2819585346278277e+00 1 0 1
714 238 2 4.0339999999999998e-01 -3.9012667375824925e+00 1.8302022822255971e+01 -4.2664255045172430e+00 1 0 1
713 238 2 4.0339999999999998e-01 -4.0485683001030477e+00 1.8322057060129072e+01 -4.2805964192993242e+00 1 0 1
478 160 1 -8.0679999999999996e-01 2.2603123850390814e+00 1.4916946683309661e+01 -4.8922192122646573e+00 1 -1 0
574 192 1 -8.0679999999999996e-01 2.0839321906383885e+00 1.9017878690326139e+01 -1.0876181867335477e+00 0 0 0
204 68 2 4.0339999999999998e-01 7.0170220472137679e-01 1.9542753709309643e+01 -1.1225451128137696e+00 1 0 0
576 192 2 4.0339999999999998e-01 2.8147792250215575e+00 1.8295862585388587e+01 -9.5299878286133310e-01 0 0 0
575 192 2 4.0339999999999998e-01 2.8594062174767325e+00 1.8323117393888204e+01 -1.0877389179525059e+00 0 0 0
422 141 2 4.0339999999999998e-01 3.5553763538331138e+00 1.5954855160779690e+01 -8.0211328294445039e-01 -1 0 0
423 141 2 4.0339999999999998e-01 3.5334532070138662e+00 1.5967261862393443e+01 -7.4339365685588898e-01 -1 0 0
421 141 1 -8.0679999999999996e-01 3.5566256713973923e+00 1.6988583431056217e+01 -9.6771187151933891e-01 -1 0 0
463 155 1 -8.0679999999999996e-01 3.3997839574036375e+00 1.4709467336305540e+01 -3.4389789117543224e-01 0 -1 0
479 160 2 4.0339999999999998e-01 2.7979596555270421e+00 1.4066244894246982e+01 -4.6502232528434204e+00 1 -1 0
480 160 2 4.0339999999999998e-01 2.7491668199238690e+00 1.4031181981482462e+01 -4.6344570740194007e+00 1 -1 0
379 127 1 -8.0679999999999996e-01 8.8892797785318010e+00 -3.7350702127812392e+00 -2.2878427226700393e+00 0 0 1
141 47 2 4.0339999999999998e-01 9.4119038476907377e+00 -3.7123395673264179e+00 -3.7222685707874605e+00 0 1 0
140 47 2 4.0339999999999998e-01 9.5138305150774478e+00 -3.6042133433261614e+00 -3.6937618193004962e+00 0 1 0
256 86 1 -8.0679999999999996e-01 8.7240472383260510e+00 1.1637933121678614e+01 -4.7274261648756655e+00 0 0 0
276 92 2 4.0339999999999998e-01 1.5566112036744311e+01 -4.8129041819641607e+00 7.0011222218822224e+00 0 1 -1
364 122 1 -8.0679999999999996e-01 5.7564282472112049e+00 1.6483685669438064e+01 -4.7554483764330131e+00 0 -1 0
467 156 2 4.0339999999999998e-01 7.9025740553639858e+00 1.7216438913949581e+01 -1.6198861741214716e+00 0 -1 0
722 241 2 4.0339999999999998e-01 3.0899453481867125e+00 3.9912701543111071e+00 6.9402284792861559e+00 -1 1 1
468 156 2 4.0339999999999998e-01 7.8329558864739104e+00 1.7229303109771841e+01 -1.5816732983658790e+00 0 -1 0
305 102 2 4.0339999999999998e-01 6.5359021323264654e+00 1.6548723176247904e+01 -3.5417365854949256e+00 0 -1 0
306 102 2 4.0339999999999998e-01 6.5224091806429927e+00 1.6710407365089594e+01 -3.5569425277934332e+00 0 -1 0
304 102 1 -8.0679999999999996e-01 7.0793532284335745e+00 1.6771313986966685e+01 -2.6822883110350308e+00 0 -1 0
685 229 1 -8.0679999999999996e-01 -3.7235817434212013e+00 -2.9045277623457681e+00 1.4708956345001267e+00 1 1 1
602 201 2 4.0339999999999998e-01 -5.0624174716156825e+00 -3.1687370249247442e+00 2.1455209669342583e+00 0 0 1
603 201 2 4.0339999999999998e-01 -5.0881823278826523e+00 -3.0855619654304025e+00 2.2255172102845142e+00 0 0 1
22 8 1 -8.0679999999999996e-01 -2.2521249607448102e-01 -1.8926788349283559e+00 3.7142423938533211e+00 1 0 -1
23 8 2 4.0339999999999998e-01 -1.9951459413840311e-01 -2.5831726295695927e+00 4.4732403956373412e+00 1 0 -1
24 8 2 4.0339999999999998e-01 1.2813757184671637e-01 -2.5038503096542826e+00 4.4853344677864806e+00 1 0 -1
741 247 2 4.0339999999999998e-01 5.1475782703192685e-01 -4.2897591390835839e+00 6.1183714051659388e+00 0 1 0
739 247 1 -8.0679999999999996e-01 4.9074572724029331e-01 -3.5611259993449256e+00 5.3938929766497568e+00 0 1 0
740 247 2 4.0339999999999998e-01 6.8133265055337944e-01 -4.2986953399842447e+00 6.1043665644276919e+00 0 1 0
145 49 1 -8.0679999999999996e-01 -4.1941653631852542e+00 -2.7727490252023403e+00 6.3666062322391719e+00 0 1 0
733 245 1 -8.0679999999999996e-01 6.3404225378536072e-01 1.9584800533211009e+01 7.1501936974396925e+00 0 0 0
146 49 2 4.0339999999999998e-01 -5.1720771123888687e+00 -3.0518257370905557e+00 6.1469385239632581e+00 0 1 0
147 49 2 4.0339999999999998e-01 -5.1835679960853449e+00 -3.0756908773737019e+00 6.3098458465729292e+00 0 1 0
631 211 1 -8.0679999999999996e-01 -1.2167058736249334e+00 -1.7107739278025313e-01 2.1014935414146532e+00 0 0 0
633 211 2 4.0339999999999998e-01 -7.7457862728856419e-01 -8.9520967826440678e-01 2.7006233665594150e+00 0 0 0
632 211 2 4.0339999999999998e-01 -7.8321671331287934e-01 -7.3064035473684985e-01 2.8561280884657352e+00 0 0 0
248 83 2 4.0339999999999998e-01 1.5707797277819903e+01 1.9422349562135508e+01 3.6116016213063302e+00 -1 0 0
395 132 2 4.0339999999999998e-01 4.9051452495913539e+00 -4.3728158198154397e+00 3.1507545761896951e+00 0 1 0
396 132 2 4.0339999999999998e-01 4.9643695623487352e+00 -4.3746974052278587e+00 3.1509262126528190e+00 0 1 0
394 132 1 -8.0679999999999996e-01 5.0235685138253698e+00 -5.0667500893134383e+00 3.9174059710020144e+00 0 1 0
718 240 1 -8.0679999999999996e-01 4.8216448951632520e+00 -3.2267373507656001e+00 2.2836517001646293e+00 0 1 1
707 236 2 4.0339999999999998e-01 3.3165843771146912e+00 -8.0856561405995819e-01 4.1239325183591822e+00 0 0 0
706 236 1 -8.0679999999999996e-01 3.1689206683128548e+00 -1.3001280262074832e+00 5.0126967818641104e+00 0 0 0
27 9 2 4.0339999999999998e-01 3.3160673402896057e+00 -1.3973498757294709e+00 6.4216903368815244e+00 0 0 0
26 9 2 4.0339999999999998e-01 3.1622488407935885e+00 -1.3580342079776244e+00 6.4650988582652067e+00 0 0 0
212 71 2 4.0339999999999998e-01 1.3941046445074935e+01 -6.0206280963790437e-01 -4.9411772121378661e+00 -1 1 1
213 71 2 4.0339999999999998e-01 1.3962119543412253e+01 -6.2431508421569770e-01 -4.8912085279003907e+00 -1 1 1
708 236 2 4.0339999999999998e-01 3.2565939228697838e+00 -1.0064919598061470e+00 4.0265127122855953e+00 0 0 0
34 12 1 -8.0679999999999996e-01 3.3505187600229585e+00 -1.2537691711665389e-01 2.8851420903456484e+00 0 0 -1
507 169 2 4.0339999999999998e-01 7.7177746742688873e+00 -2.5378668462373106e+00 3.3558935857027867e+00 0 0 1
506 169 2 4.0339999999999998e-01 7.6867219677528835e+00 -2.3656895551083887e+00 3.2492261114769390e+00 0 0 1
121 41 1 -8.0679999999999996e-01 7.3412072690930534e+00 -1.5627514872369241e+00 4.2843868917980386e+00 -1 1 0
590 197 2 4.0339999999999998e-01 1.0451542978597956e+01 1.8873453600890990e+01 2.3359947659774711e+00 -1 0 0
123 41 2 4.0339999999999998e-01 7.0542356657489167e+00 -6.4689362265229189e-01 4.6869039674207906e+00 -1 1 0
122 41 2 4.0339999999999998e-01 6.9520224591877335e+00 -6.2724976996285342e-01 4.5140435205865428e+00 -1 1 0
589 197 1 -8.0679999999999996e-01 1.1137031268132201e+01 1.9354415090044533e+01 2.9428921407113782e+00 -1 0 0
671 224 2 4.0339999999999998e-01 1.1842251619782129e+01 -4.5800620039696405e+00 3.7200989935799127e+00 -1 0 0
672 224 2 4.0339999999999998e-01 1.1802127532343665e+01 -4.5507696111868388e+00 3.7704306950568549e+00 -1 0 0
192 64 2 4.0339999999999998e-01 1.8210503254835711e+01 -1.3603763695689457e+00 4.0348132101928398e+00 -1 0 0
190 64 1 -8.0679999999999996e-01 1.9179496564874828e+01 -9.8862085284418733e-01 3.9776980222921905e+00 -1 0 0
191 64 2 4.0339999999999998e-01 1.8196785746733596e+01 -1.3324529218450194e+00 3.9574128430113342e+00 -1 0 0
678 226 2 4.0339999999999998e-01 1.7756239562527146e+01 -4.1430547061325651e+00 2.8975156343512127e+00 0 0 0
676 226 1 -8.0679999999999996e-01 1.6866486927810520e+01 -4.6727307688175834e+00 3.0662667010697158e+00 0 0 0
677 226 2 4.0339999999999998e-01 1.7731578540214777e+01 -4.1686794039072632e+00 2.7720116502251804e+00 0 0 0
601 201 1 -8.0679999999999996e-01 1.8937074810679757e+01 -3.6079068846305784e+00 2.4231116578748075e+00 -1 0 1
612 204 2 4.0339999999999998e-01 1.5952895047938110e+01 -2.1614261898950109e+00 4.1086432972293983e+00 -1 0 0
611 204 2 4.0339999999999998e-01 1.5934642935471871e+01 -2.2080130809582941e+00 3.9651742970842916e+00 -1 0 0
610 204 1 -8.0679999999999996e-01 1.6895404929209835e+01 -1.7675415714375560e+00 3.9115945032113677e+00 -1 0 0
164 55 2 4.0339999999999998e-01 1.3791781329092441e+01 -3.3115471293520304e+00 4.1972316026335692e+00 -1 0 0
165 55 2 4.0339999999999998e-01 1.3789149896518136e+01 -3.2943427486483783e+00 4.0600239887655922e+00 -1 0 0
163 55 1 -8.0679999999999996e-01 1.4722960130227548e+01 -2.8526786187275475e+00 4.1060434428781027e+00 -1 0 0
670 224 1 -8.0679999999999996e-01 1.2496203177754946e+01 -3.8875222589858707e+00 4.1343971307766347e+00 -1 0 0
367 123 1 -8.0679999999999996e-01 1.8336745756785039e+01 -3.3762160562578187e+00 6.1082385545110389e+00 -1 1 0
199 67 1 -8.0679999999999996e-01 -1.3923277582872196e+00 7.9544812713177038e-02 5.4540863242148161e+00 0 0 0
92 31 2 4.0339999999999998e-01 -1.8879575924561038e+00 5.2031630444502222e+00 6.8499110870731625e+00 -1 0 -1
93 31 2 4.0339999999999998e-01 -2.0594902430860937e+00 5.1747920488336652e+00 6.7643559505639930e+00 -1 0 -1
91 31 1 -8.0679999999999996e-01 -1.5106436796742608e+00 4.7398305054002181e+00 5.9932338591719594e+00 -1 0 -1
31 11 1 -8.0679999999999996e-01 -3.5723833269660736e+00 -1.7187972993073686e-01 4.5494141455369297e+00 0 0 0
32 11 2 4.0339999999999998e-01 -4.5288650963616792e+00 -4.9669242190944463e-01 4.2819961849821881e+00 0 0 0
33 11 2 4.0339999999999998e-01 -4.4587103249914559e+00 -5.7669356251440540e-01 4.1653553048462930e+00 0 0 0
201 67 2 4.0339999999999998e-01 -2.3726641599672780e+00 6.5768996045639128e-02 5.0866281009159584e+00 0 0 0
200 67 2 4.0339999999999998e-01 -2.3599635469507274e+00 -2.4815418321448846e-03 5.0734650411852433e+00 0 0 0
360 120 2 4.0339999999999998e-01 -1.8625353293110321e+00 8.4268428994010858e-01 1.4351241990227326e+00 1 0 0
359 120 2 4.0339999999999998e-01 -1.7617740115829816e+00 8.8931356067928924e-01 1.4122523771829520e+00 1 0 0
358 120 1 -8.0679999999999996e-01 -2.2257233890624346e+00 1.7220539965700077e+00 1.0151514008163156e+00 1 0 0
339 113 2 4.0339999999999998e-01 -2.8117731024938020e+00 2.9658655733303592e+00 5.5357468112889219e-01 0 0 0
374 125 2 4.0339999999999998e-01 8.8368772080338243e-01 3.6651760364421717e+00 3.2927359062511092e+00 0 0 0
375 125 2 4.0339999999999998e-01 9.2114043873805329e-01 3.7667366433883887e+00 3.3124369643167020e+00 0 0 0
424 142 1 -8.0679999999999996e-01 1.1087524649879388e-01 3.7872131280147778e+00 4.4294856531343418e+00 0 1 -1
425 142 2 4.0339999999999998e-01 -5.9136742058805680e-01 3.9877779411053842e+00 5.1555932250581842e+00 0 1 -1
426 142 2 4.0339999999999998e-01 -7.4721492114745836e-01 4.0707334610550836e+00 4.9427079657802997e+00 0 1 -1
373 125 1 -8.0679999999999996e-01 1.5912440294265231e+00 3.6601099234735139e+00 2.5273165589308961e+00 0 0 0
730 244 1 -8.0679999999999996e-01 3.4120619649094719e+00 3.3881392691448271e+00 9.8217336947632994e-01 0 1 0
296 99 2 4.0339999999999998e-01 4.5032346236527490e+00 3.2337186577924237e+00 3.8171058100638255e-02 0 0 0
297 99 2 4.0339999999999998e-01 4.5434699528655438e+00 3.2895549203806178e+00 6.6715731860594651e-02 0 0 0
731 244 2 4.0339999999999998e-01 2.6397474550064919e+00 3.5079893948754455e+00 1.6557919820790659e+00 0 1 0
732 244 2 4.0339999999999998e-01 2.5977113498484492e+00 3.4851197306740174e+00 1.6301117808105774e+00 0 1 0
249 83 2 4.0339999999999998e-01 1.5801885630377697e+01 1.9262703323341359e+01 3.4598057457258173e+00 -1 0 0
295 99 1 -8.0679999999999996e-01 5.3531730252528975e+00 3.1438841008702587e+00 -5.6569117122275969e-01 0 0 0
692 231 2 4.0339999999999998e-01 6.6868169865091209e+00 3.1459617400615807e+00 -1.1272704809418386e+00 -1 1 0
693 231 2 4.0339999999999998e-01 6.7048670290141184e+00 3.1537682246223975e+00 -1.0245884549836388e+00 -1 1 0