ITEM: TIMESTEP
0
ITEM: NUMBER OF ATOMS
6
ITEM: BOX BOUNDS pp pp pp
-5.0000000000000000e+00 5.0000000000000000e+00
-5.0000000000000000e+00 5.0000000000000000e+00
-5.0000000000000000e+00 5.0000000000000000e+00
ITEM: ATOMS id type xs ys zs
1 1 0.5 0.5 0.5
2 2 0.5 0.5 0.4
3 2 0.6 0.5 0.5
4 1 0.5 0.5 0.8
5 2 0.5 0.5 0.9
6 2 0.6 0.5 0.8
ITEM: TIMESTEP
100
ITEM: NUMBER OF ATOMS
6
ITEM: BOX BOUNDS pp pp pp
-5.0000000000000000e+00 5.0000000000000000e+00
-5.0000000000000000e+00 5.0000000000000000e+00
-5.0000000000000000e+00 5.0000000000000000e+00
ITEM: ATOMS id type xs ys zs
1 1 0.509843 0.493875 0.481039
2 2 0.434525 0.526447 0.423182
3 2 0.581742 0.564004 0.482719
4 1 0.496572 0.5046 0.822592
5 2 0.556839 0.477442 0.897739
6 2 0.525064 0.45631 0.738721
ITEM: TIMESTEP
200
ITEM: NUMBER OF ATOMS
6
ITEM: BOX BOUNDS pp pp pp
-5.0000000000000000e+00 5.0000000000000000e+00
-5.0000000000000000e+00 5.0000000000000000e+00
-5.0000000000000000e+00 5.0000000000000000e+00
ITEM: ATOMS id type xs ys zs
1 1 0.510189 0.498524 0.499838
2 2 0.443252 0.46618 0.432378
3 2 0.579635 0.552022 0.450979
4 1 0.497353 0.50391 0.811052
5 2 0.566474 0.435003 0.833485
6 2 0.490927 0.508158 0.710314
ITEM: TIMESTEP
300
ITEM: NUMBER OF ATOMS
6
ITEM: BOX BOUNDS pp pp pp
-5.0000000000000000e+00 5.0000000000000000e+00
-5.0000000000000000e+00 5.0000000000000000e+00
-5.0000000000000000e+00 5.0000000000000000e+00
ITEM: ATOMS id type xs ys zs
1 1 0.510057 0.499591 0.521687
2 2 0.435972 0.462687 0.46467
3 2 0.566535 0.558917 0.463458
4 1 0.498656 0.503144 0.789094
5 2 0.559736 0.427519 0.813586
6 2 0.49945 0.507453 0.687163
ITEM: TIMESTEP
400
ITEM: NUMBER OF ATOMS
6
ITEM: BOX BOUNDS pp pp pp
-5.0000000000000000e+00 5.0000000000000000e+00
-5.0000000000000000e+00 5.0000000000000000e+00
-5.0000000000000000e+00 5.0000000000000000e+00
ITEM: ATOMS id type xs ys zs
1 1 0.508549 0.501001 0.518528
2 2 0.438306 0.462239 0.45803
3 2 0.567426 0.560274 0.462699
4 1 0.500135 0.501871 0.792497
5 2 0.558678 0.423212 0.813365
6 2 0.497767 0.508679 0.690917
ITEM: TIMESTEP
500
ITEM: NUMBER OF ATOMS
6
ITEM: BOX BOUNDS pp pp pp
-5.0000000000000000e+00 5.0000000000000000e+00
-5.0000000000000000e+00 5.0000000000000000e+00
-5.0000000000000000e+00 5.0000000000000000e+00
ITEM: ATOMS id type xs ys zs
1 1 0.506936 0.502901 0.518833
2 2 0.433692 0.468676 0.459149
3 2 0.562275 0.567319 0.465104
4 1 0.502382 0.499592 0.792057
5 2 0.556273 0.417542 0.812396
6 2 0.499862 0.506883 0.690499
ITEM: TIMESTEP
600
ITEM: NUMBER OF ATOMS
6
ITEM: BOX BOUNDS pp pp pp
-5.0000000000000000e+00 5.0000000000000000e+00
-5.0000000000000000e+00 5.0000000000000000e+00
-5.0000000000000000e+00 5.0000000000000000e+00
ITEM: ATOMS id type xs ys zs
1 1 0.50333 0.507502 0.52019
2 2 0.430315 0.474828 0.459369
3 2 0.562704 0.568238 0.466483
4 1 0.506098 0.495061 0.791016
5 2 0.556772 0.409954 0.806406
6 2 0.500568 0.5063 0.689876
ITEM: TIMESTEP
700
ITEM: NUMBER OF ATOMS
6
ITEM: BOX BOUNDS pp pp pp
-5.0000000000000000e+00 5.0000000000000000e+00
-5.0000000000000000e+00 5.0000000000000000e+00
-5.0000000000000000e+00 5.0000000000000000e+00
ITEM: ATOMS id type xs ys zs
1 1 0.497622 0.515702 0.520479
2 2 0.419209 0.49126 0.462574
3 2 0.56018 0.571359 0.464906
4 1 0.512406 0.4865 0.791025
5 2 0.558544 0.397846 0.798703
6 2 0.502903 0.504579 0.691228
ITEM: TIMESTEP
800
ITEM: NUMBER OF ATOMS
6
ITEM: BOX BOUNDS pp pp pp
-5.0000000000000000e+00 5.0000000000000000e+00
-5.0000000000000000e+00 5.0000000000000000e+00
-5.0000000000000000e+00 5.0000000000000000e+00
ITEM: ATOMS id type xs ys zs
1 1 0.491579 0.524191 0.521543
2 2 0.404584 0.517005 0.471762
3 2 0.554081 0.579577 0.465656
4 1 0.51948 0.476924 0.789798
5 2 0.559295 0.384944 0.790912
6 2 0.506513 0.500782 0.69166
ITEM: TIMESTEP
900
ITEM: NUMBER OF ATOMS
6
ITEM: BOX BOUNDS pp pp pp
-5.0000000000000000e+00 5.0000000000000000e+00
-5.0000000000000000e+00 5.0000000000000000e+00
-5.0000000000000000e+00 5.0000000000000000e+00
ITEM: ATOMS id type xs ys zs
1 1 0.487432 0.529861 0.524167
2 2 0.39875 0.527391 0.476964
3 2 0.553326 0.574264 0.462645
4 1 0.524059 0.471395 0.787615
5 2 0.557635 0.377126 0.78181
6 2 0.507898 0.501284 0.691578
ITEM: TIMESTEP
1000
ITEM: NUMBER OF ATOMS
6
ITEM: BOX BOUNDS pp pp pp
-5.0000000000000000e+00 5.0000000000000000e+00
-5.0000000000000000e+00 5.0000000000000000e+00
-5.0000000000000000e+00 5.0000000000000000e+00
ITEM: ATOMS id type xs ys zs
1 1 0.484634 0.532328 0.525813
2 2 0.392756 0.542357 0.486369
3 2 0.550561 0.567633 0.45869
4 1 0.527547 0.468792 0.785875
5 2 0.552922 0.372073 0.778968
6 2 0.510425 0.500171 0.690451
ITEM: TIMESTEP
1100
ITEM: NUMBER OF ATOMS
6
ITEM: BOX BOUNDS pp pp pp
-5.0000000000000000e+00 5.0000000000000000e+00
-5.0000000000000000e+00 5.0000000000000000e+00
-5.0000000000000000e+00 5.0000000000000000e+00
ITEM: ATOMS id type xs ys zs
1 1 0.480141 0.533229 0.525377
2 2 0.391701 0.574272 0.501045
3 2 0.543032 0.54878 0.448566
4 1 0.532953 0.467485 0.785835
5 2 0.543347 0.367891 0.78196
6 2 0.514097 0.497728 0.690469
ITEM: TIMESTEP
1200
ITEM: NUMBER OF ATOMS
6
ITEM: BOX BOUNDS pp pp pp
-5.0000000000000000e+00 5.0000000000000000e+00
-5.0000000000000000e+00 5.0000000000000000e+00
-5.0000000000000000e+00 5.0000000000000000e+00
ITEM: ATOMS id type xs ys zs
1 1 0.474052 0.533139 0.526706
2 2 0.407218 0.606964 0.513236
3 2 0.512578 0.510147 0.4368
4 1 0.54074 0.467838 0.784333
5 2 0.525797 0.368725 0.785156
6 2 0.519629 0.498652 0.689609
ITEM: TIMESTEP
1300
ITEM: NUMBER OF ATOMS
6
ITEM: BOX BOUNDS pp pp pp
-5.0000000000000000e+00 5.0000000000000000e+00
-5.0000000000000000e+00 5.0000000000000000e+00
-5.0000000000000000e+00 5.0000000000000000e+00
ITEM: ATOMS id type xs ys zs
1 1 0.470063 0.531227 0.529362
2 2 0.417505 0.616112 0.517858
3 2 0.500808 0.501933 0.438294
4 1 0.545305 0.469434 0.781231
5 2 0.516947 0.373628 0.789273
6 2 0.520819 0.497837 0.686439
ITEM: TIMESTEP
1400
ITEM: NUMBER OF ATOMS
6
ITEM: BOX BOUNDS pp pp pp
-5.0000000000000000e+00 5.0000000000000000e+00
-5.0000000000000000e+00 5.0000000000000000e+00
-5.0000000000000000e+00 5.0000000000000000e+00
ITEM: ATOMS id type xs ys zs
1 1 0.467643 0.530344 0.528446
2 2 0.395122 0.59765 0.510937
3 2 0.517092 0.515616 0.442221
4 1 0.547902 0.470488 0.782114
5 2 0.519974 0.374663 0.791177
6 2 0.52108 0.498869 0.688055
ITEM: TIMESTEP
1500
ITEM: NUMBER OF ATOMS
6
ITEM: BOX BOUNDS pp pp pp
-5.0000000000000000e+00 5.0000000000000000e+00
-5.0000000000000000e+00 5.0000000000000000e+00
-5.0000000000000000e+00 5.0000000000000000e+00
ITEM: ATOMS id type xs ys zs
1 1 0.467282 0.528808 0.527002
2 2 0.373355 0.547936 0.496894
3 2 0.529113 0.554809 0.452173
4 1 0.547494 0.472698 0.784031
5 2 0.544529 0.372531 0.785198
6 2 0.518465 0.500828 0.690618
ITEM: TIMESTEP
1600
ITEM: NUMBER OF ATOMS
6
ITEM: BOX BOUNDS pp pp pp
-5.0000000000000000e+00 5.0000000000000000e+00
-5.0000000000000000e+00 5.0000000000000000e+00
-5.0000000000000000e+00 5.0000000000000000e+00
ITEM: ATOMS id type xs ys zs
1 1 0.469147 0.525802 0.527946
2 2 0.374264 0.523156 0.494984
3 2 0.524117 0.573556 0.458689
4 1 0.544013 0.475467 0.783429
5 2 0.578883 0.38177 0.776182
6 2 0.513855 0.501379 0.689599
ITEM: TIMESTEP
1700
ITEM: NUMBER OF ATOMS
6
ITEM: BOX BOUNDS pp pp pp
-5.0000000000000000e+00 5.0000000000000000e+00
-5.0000000000000000e+00 5.0000000000000000e+00
-5.0000000000000000e+00 5.0000000000000000e+00
ITEM: ATOMS id type xs ys zs
1 1 0.471133 0.523492 0.526497
2 2 0.376005 0.510924 0.49663
3 2 0.520411 0.569823 0.452177
4 1 0.541012 0.477797 0.785141
5 2 0.598922 0.3965 0.775856
6 2 0.511901 0.502306 0.690626
ITEM: TIMESTEP
1800
ITEM: NUMBER OF ATOMS
6
ITEM: BOX BOUNDS pp pp pp
-5.0000000000000000e+00 5.0000000000000000e+00
-5.0000000000000000e+00 5.0000000000000000e+00
-5.0000000000000000e+00 5.0000000000000000e+00
ITEM: ATOMS id type xs ys zs
1 1 0.473906 0.518574 0.523479
2 2 0.378817 0.505479 0.493727
3 2 0.523317 0.563491 0.448392
4 1 0.537699 0.482835 0.787986
5 2 0.602349 0.406359 0.784292
6 2 0.511323 0.502305 0.691616
ITEM: TIMESTEP
1900
ITEM: NUMBER OF ATOMS
6
ITEM: BOX BOUNDS pp pp pp
-5.0000000000000000e+00 5.0000000000000000e+00
-5.0000000000000000e+00 5.0000000000000000e+00
-5.0000000000000000e+00 5.0000000000000000e+00
ITEM: ATOMS id type xs ys zs
1 1 0.479509 0.50902 0.522267
2 2 0.386994 0.496125 0.485206
3 2 0.534313 0.555018 0.451697
4 1 0.53217 0.493271 0.788903
5 2 0.583281 0.407309 0.795616
6 2 0.510036 0.505186 0.690188
ITEM: TIMESTEP
2000
ITEM: NUMBER OF ATOMS
6
ITEM: BOX BOUNDS pp pp pp
-5.0000000000000000e+00 5.0000000000000000e+00
-5.0000000000000000e+00 5.0000000000000000e+00
-5.0000000000000000e+00 5.0000000000000000e+00
ITEM: ATOMS id type xs ys zs
1 1 0.484868 0.501506 0.521662
2 2 0.397967 0.48116 0.475501
3 2 0.546504 0.542578 0.45374
4 1 0.526906 0.502097 0.789541
5 2 0.560291 0.408564 0.803259
6 2 0.508369 0.510518 0.689674
ITEM: TIMESTEP
2100
ITEM: NUMBER OF ATOMS
6
ITEM: BOX BOUNDS pp pp pp
-5.0000000000000000e+00 5.0000000000000000e+00
-5.0000000000000000e+00 5.0000000000000000e+00
-5.0000000000000000e+00 5.0000000000000000e+00
ITEM: ATOMS id type xs ys zs
1 1 0.489081 0.497663 0.519932
2 2 0.401566 0.48262 0.472894
3 2 0.55204 0.540062 0.454071
4 1 0.522248 0.505678 0.790985
5 2 0.559455 0.41443 0.809414
6 2 0.507134 0.50986 0.690345
ITEM: TIMESTEP
2200
ITEM: NUMBER OF ATOMS
6
ITEM: BOX BOUNDS pp pp pp
-5.0000000000000000e+00 5.0000000000000000e+00
-5.0000000000000000e+00 5.0000000000000000e+00
-5.0000000000000000e+00 5.0000000000000000e+00
ITEM: ATOMS id type xs ys zs
1 1 0.493972 0.497792 0.519134
2 2 0.404857 0.480512 0.476024
3 2 0.553738 0.539259 0.44981
4 1 0.516483 0.505275 0.791749
5 2 0.569764 0.422553 0.810859
6 2 0.505689 0.508996 0.690563
ITEM: TIMESTEP
2300
ITEM: NUMBER OF ATOMS
6
ITEM: BOX BOUNDS pp pp pp
-5.0000000000000000e+00 5.0000000000000000e+00
-5.0000000000000000e+00 5.0000000000000000e+00
-5.0000000000000000e+00 5.0000000000000000e+00
ITEM: ATOMS id type xs ys zs
1 1 0.499804 0.50252 0.520357
2 2 0.421662 0.4654 0.469205
3 2 0.558595 0.551089 0.454921
4 1 0.508817 0.500064 0.790942
5 2 0.583214 0.434788 0.806825
6 2 0.499702 0.507707 0.689709
ITEM: TIMESTEP
2400
ITEM: NUMBER OF ATOMS
6
ITEM: BOX BOUNDS pp pp pp
-5.0000000000000000e+00 5.0000000000000000e+00
-5.0000000000000000e+00 5.0000000000000000e+00
-5.0000000000000000e+00 5.0000000000000000e+00
ITEM: ATOMS id type xs ys zs
1 1 0.506757 0.509047 0.519831
2 2 0.449938 0.452316 0.459395
3 2 0.535493 0.589889 0.467523
4 1 0.501587 0.491996 0.791086
5 2 0.5844 0.438748 0.809994
6 2 0.497726 0.502495 0.689811
ITEM: TIMESTEP
2500
ITEM: NUMBER OF ATOMS
6
ITEM: BOX BOUNDS pp pp pp
-5.0000000000000000e+00 5.0000000000000000e+00
-5.0000000000000000e+00 5.0000000000000000e+00
-5.0000000000000000e+00 5.0000000000000000e+00
ITEM: ATOMS id type xs ys zs
1 1 0.508342 0.51413 0.519034
2 2 0.472594 0.452444 0.448221
3 2 0.52088 0.604544 0.476997
4 1 0.499561 0.48622 0.791917
5 2 0.585748 0.438313 0.809962
6 2 0.495336 0.499136 0.691009
ITEM: TIMESTEP
2600
ITEM: NUMBER OF ATOMS
6
ITEM: BOX BOUNDS pp pp pp
-5.0000000000000000e+00 5.0000000000000000e+00
-5.0000000000000000e+00 5.0000000000000000e+00
-5.0000000000000000e+00 5.0000000000000000e+00
ITEM: ATOMS id type xs ys zs
1 1 0.506616 0.518519 0.520833
2 2 0.476955 0.454621 0.449173
3 2 0.515433 0.609368 0.478797
4 1 0.501066 0.481437 0.790268
5 2 0.590397 0.438719 0.805925
6 2 0.495292 0.49799 0.6899
ITEM: TIMESTEP
2700
ITEM: NUMBER OF ATOMS
6
ITEM: BOX BOUNDS pp pp pp
-5.0000000000000000e+00 5.0000000000000000e+00
-5.0000000000000000e+00 5.0000000000000000e+00
-5.0000000000000000e+00 5.0000000000000000e+00
ITEM: ATOMS id type xs ys zs
1 1 0.501885 0.523689 0.522455
2 2 0.462664 0.4642 0.451585
3 2 0.510399 0.615889 0.483403
4 1 0.506276 0.475319 0.788511
5 2 0.599342 0.440676 0.802109
6 2 0.49806 0.494967 0.68884
ITEM: TIMESTEP
2800
ITEM: NUMBER OF ATOMS
6
ITEM: BOX BOUNDS pp pp pp
-5.0000000000000000e+00 5.0000000000000000e+00
-5.0000000000000000e+00 5.0000000000000000e+00
-5.0000000000000000e+00 5.0000000000000000e+00
ITEM: ATOMS id type xs ys zs
1 1 0.492544 0.531301 0.522466
2 2 0.448893 0.473452 0.452851
3 2 0.504529 0.622826 0.482777
4 1 0.51614 0.467441 0.788896
5 2 0.608995 0.429827 0.792066
6 2 0.499755 0.493863 0.691961
ITEM: TIMESTEP
2900
ITEM: NUMBER OF ATOMS
6
ITEM: BOX BOUNDS pp pp pp
-5.0000000000000000e+00 5.0000000000000000e+00
-5.0000000000000000e+00 5.0000000000000000e+00
-5.0000000000000000e+00 5.0000000000000000e+00
ITEM: ATOMS id type xs ys zs
1 1 0.485278 0.535122 0.525485
2 2 0.438839 0.48381 0.452619
3 2 0.492966 0.630632 0.495208
4 1 0.524304 0.463314 0.785878
5 2 0.613719 0.41825 0.781144
6 2 0.502386 0.492137 0.69068
ITEM: TIMESTEP
3000
ITEM: NUMBER OF ATOMS
6
ITEM: BOX BOUNDS pp pp pp
-5.0000000000000000e+00 5.0000000000000000e+00
-5.0000000000000000e+00 5.0000000000000000e+00
-5.0000000000000000e+00 5.0000000000000000e+00
ITEM: ATOMS id type xs ys zs
1 1 0.481035 0.537059 0.528074
2 2 0.44244 0.484682 0.451493
3 2 0.479459 0.634188 0.502351
4 1 0.528877 0.461391 0.7834
5 2 0.616717 0.413917 0.774704
6 2 0.50406 0.491802 0.689346
ITEM: TIMESTEP
3100
ITEM: NUMBER OF ATOMS
6
ITEM: BOX BOUNDS pp pp pp
-5.0000000000000000e+00 5.0000000000000000e+00
-5.0000000000000000e+00 5.0000000000000000e+00
-5.0000000000000000e+00 5.0000000000000000e+00
ITEM: ATOMS id type xs ys zs
1 1 0.477283 0.538779 0.527884
2 2 0.456057 0.487633 0.44403
3 2 0.459005 0.635908 0.50971
4 1 0.532371 0.458752 0.783491
5 2 0.627238 0.427414 0.775599
6 2 0.504478 0.488232 0.690105
ITEM: TIMESTEP
3200
ITEM: NUMBER OF ATOMS
6
ITEM: BOX BOUNDS pp pp pp
-5.0000000000000000e+00 5.0000000000000000e+00
-5.0000000000000000e+00 5.0000000000000000e+00
-5.0000000000000000e+00 5.0000000000000000e+00
ITEM: ATOMS id type xs ys zs
1 1 0.474823 0.541102 0.528668
2 2 0.476095 0.490988 0.441591
3 2 0.413534 0.619949 0.517598
4 1 0.535698 0.455297 0.78192
5 2 0.635738 0.460984 0.784006
6 2 0.507657 0.485238 0.68875
ITEM: TIMESTEP
3300
ITEM: NUMBER OF ATOMS
6
ITEM: BOX BOUNDS pp pp pp
-5.0000000000000000e+00 5.0000000000000000e+00
-5.0000000000000000e+00 5.0000000000000000e+00
-5.0000000000000000e+00 5.0000000000000000e+00
ITEM: ATOMS id type xs ys zs
1 1 0.471747 0.540636 0.531484
2 2 0.497256 0.50442 0.441285
3 2 0.39406 0.603019 0.518391
4 1 0.538973 0.454236 0.778947
5 2 0.631292 0.4921 0.788647
6 2 0.507245 0.481855 0.686102
ITEM: TIMESTEP
3400
ITEM: NUMBER OF ATOMS
6
ITEM: BOX BOUNDS pp pp pp
-5.0000000000000000e+00 5.0000000000000000e+00
-5.0000000000000000e+00 5.0000000000000000e+00
-5.0000000000000000e+00 5.0000000000000000e+00
ITEM: ATOMS id type xs ys zs
1 1 0.468849 0.538159 0.531122
2 2 0.491429 0.498225 0.441727
3 2 0.39407 0.603806 0.517191
4 1 0.542162 0.456473 0.779278
5 2 0.631128 0.501467 0.789568
6 2 0.508609 0.481703 0.68644
ITEM: TIMESTEP
3500
ITEM: NUMBER OF ATOMS
6
ITEM: BOX BOUNDS pp pp pp
-5.0000000000000000e+00 5.0000000000000000e+00
-5.0000000000000000e+00 5.0000000000000000e+00
-5.0000000000000000e+00 5.0000000000000000e+00
ITEM: ATOMS id type xs ys zs
1 1 0.465943 0.532618 0.528099
2 2 0.45801 0.468576 0.451067
3 2 0.407735 0.611977 0.507862
4 1 0.54536 0.464096 0.782556
5 2 0.643673 0.483463 0.782179
6 2 0.511182 0.488144 0.689772
ITEM: TIMESTEP
3600
ITEM: NUMBER OF ATOMS
6
ITEM: BOX BOUNDS pp pp pp
-5.0000000000000000e+00 5.0000000000000000e+00
-5.0000000000000000e+00 5.0000000000000000e+00
-5.0000000000000000e+00 5.0000000000000000e+00
ITEM: ATOMS id type xs ys zs
1 1 0.464668 0.524811 0.528343
2 2 0.441044 0.462799 0.452891
3 2 0.43985 0.617984 0.500072
4 1 0.545869 0.47316 0.783369
5 2 0.644382 0.460053 0.770346
6 2 0.507474 0.491362 0.690801
ITEM: TIMESTEP
3700
ITEM: NUMBER OF ATOMS
6
ITEM: BOX BOUNDS pp pp pp
-5.0000000000000000e+00 5.0000000000000000e+00
-5.0000000000000000e+00 5.0000000000000000e+00
-5.0000000000000000e+00 5.0000000000000000e+00
ITEM: ATOMS id type xs ys zs
1 1 0.467201 0.521242 0.527876
2 2 0.437477 0.456491 0.457014
3 2 0.446428 0.613911 0.494998
4 1 0.543603 0.4781 0.783872
5 2 0.637179 0.44444 0.771313
6 2 0.507445 0.495603 0.690201
ITEM: TIMESTEP
3800
ITEM: NUMBER OF ATOMS
6
ITEM: BOX BOUNDS pp pp pp
-5.0000000000000000e+00 5.0000000000000000e+00
-5.0000000000000000e+00 5.0000000000000000e+00
-5.0000000000000000e+00 5.0000000000000000e+00
ITEM: ATOMS id type xs ys zs
1 1 0.471681 0.518229 0.524413
2 2 0.438814 0.454639 0.453899
3 2 0.453281 0.611586 0.492092
4 1 0.538886 0.481204 0.787067
5 2 0.633038 0.447487 0.780451
6 2 0.507151 0.495283 0.691349
ITEM: TIMESTEP
3900
ITEM: NUMBER OF ATOMS
6
ITEM: BOX BOUNDS pp pp pp
-5.0000000000000000e+00 5.0000000000000000e+00
-5.0000000000000000e+00 5.0000000000000000e+00
-5.0000000000000000e+00 5.0000000000000000e+00
ITEM: ATOMS id type xs ys zs
1 1 0.480087 0.515313 0.521753
2 2 0.455694 0.443938 0.455354
3 2 0.46449 0.604302 0.477752
4 1 0.529304 0.484142 0.789872
5 2 0.627397 0.463614 0.790138
6 2 0.503364 0.496797 0.692245
ITEM: TIMESTEP
4000
ITEM: NUMBER OF ATOMS
6
ITEM: BOX BOUNDS pp pp pp
-5.0000000000000000e+00 5.0000000000000000e+00
-5.0000000000000000e+00 5.0000000000000000e+00
-5.0000000000000000e+00 5.0000000000000000e+00
ITEM: ATOMS id type xs ys zs
1 1 0.49006 0.511626 0.521771
2 2 0.467569 0.437044 0.458281
3 2 0.472916 0.598373 0.474032
4 1 0.518789 0.487301 0.789511
5 2 0.618572 0.485363 0.79898
6 2 0.500496 0.49626 0.689628
ITEM: TIMESTEP
4100
ITEM: NUMBER OF ATOMS
6
ITEM: BOX BOUNDS pp pp pp
-5.0000000000000000e+00 5.0000000000000000e+00
-5.0000000000000000e+00 5.0000000000000000e+00
-5.0000000000000000e+00 5.0000000000000000e+00
ITEM: ATOMS id type xs ys zs
1 1 0.495701 0.509064 0.519874
2 2 0.480878 0.431581 0.457619
3 2 0.476557 0.593323 0.468569
4 1 0.512656 0.490174 0.791371
5 2 0.612046 0.489866 0.804498
6 2 0.497881 0.497333 0.690833
ITEM: TIMESTEP
4200
ITEM: NUMBER OF ATOMS
6
ITEM: BOX BOUNDS pp pp pp
-5.0000000000000000e+00 5.0000000000000000e+00
-5.0000000000000000e+00 5.0000000000000000e+00
-5.0000000000000000e+00 5.0000000000000000e+00
ITEM: ATOMS id type xs ys zs
1 1 0.499376 0.505595 0.518489
2 2 0.489339 0.429529 0.4536
3 2 0.476566 0.590393 0.469626
4 1 0.508766 0.494041 0.79261
5 2 0.607454 0.487971 0.809111
6 2 0.497402 0.497874 0.691502
ITEM: TIMESTEP
4300
ITEM: NUMBER OF ATOMS
6
ITEM: BOX BOUNDS pp pp pp
-5.0000000000000000e+00 5.0000000000000000e+00
-5.0000000000000000e+00 5.0000000000000000e+00
-5.0000000000000000e+00 5.0000000000000000e+00
ITEM: ATOMS id type xs ys zs
1 1 0.502168 0.500424 0.520137
2 2 0.493396 0.421615 0.458415
3 2 0.476549 0.582615 0.468282
4 1 0.505929 0.500031 0.790783
5 2 0.603417 0.488135 0.810816
6 2 0.498122 0.500418 0.689172
ITEM: TIMESTEP
4400
ITEM: NUMBER OF ATOMS
6
ITEM: BOX BOUNDS pp pp pp
-5.0000000000000000e+00 5.0000000000000000e+00
-5.0000000000000000e+00 5.0000000000000000e+00
-5.0000000000000000e+00 5.0000000000000000e+00
ITEM: ATOMS id type xs ys zs
1 1 0.502396 0.490697 0.520385
2 2 0.492958 0.405703 0.467618
3 2 0.493111 0.567492 0.456239
4 1 0.504904 0.509999 0.790866
5 2 0.603671 0.51302 0.807828
6 2 0.494403 0.50274 0.68974
ITEM: TIMESTEP
4500
ITEM: NUMBER OF ATOMS
6
ITEM: BOX BOUNDS pp pp pp
-5.0000000000000000e+00 5.0000000000000000e+00
-5.0000000000000000e+00 5.0000000000000000e+00
-5.0000000000000000e+00 5.0000000000000000e+00
ITEM: ATOMS id type xs ys zs
1 1 0.501821 0.480829 0.519346
2 2 0.47574 0.390359 0.48421
3 2 0.491421 0.546729 0.444206
4 1 0.506537 0.519966 0.791536
5 2 0.602279 0.544892 0.80771
6 2 0.497893 0.505396 0.691157
ITEM: TIMESTEP
4600
ITEM: NUMBER OF ATOMS
6
ITEM: BOX BOUNDS pp pp pp
-5.0000000000000000e+00 5.0000000000000000e+00
-5.0000000000000000e+00 5.0000000000000000e+00
-5.0000000000000000e+00 5.0000000000000000e+00
ITEM: ATOMS id type xs ys zs
1 1 0.498926 0.475792 0.521655
2 2 0.477048 0.382793 0.490467
3 2 0.486024 0.537787 0.443629
4 1 0.509527 0.52525 0.78935
5 2 0.603984 0.556559 0.801388
6 2 0.49877 0.506314 0.689842
ITEM: TIMESTEP
4700
ITEM: NUMBER OF ATOMS
6
ITEM: BOX BOUNDS pp pp pp
-5.0000000000000000e+00 5.0000000000000000e+00
-5.0000000000000000e+00 5.0000000000000000e+00
-5.0000000000000000e+00 5.0000000000000000e+00
ITEM: ATOMS id type xs ys zs
1 1 0.494672 0.472213 0.523537
2 2 0.487577 0.377672 0.490216
3 2 0.475642 0.533267 0.446022
4 1 0.513491 0.529296 0.787784
5 2 0.60926 0.558143 0.794508
6 2 0.497947 0.506978 0.689561
ITEM: TIMESTEP
4800
ITEM: NUMBER OF ATOMS
6
ITEM: BOX BOUNDS pp pp pp
-5.0000000000000000e+00 5.0000000000000000e+00
-5.0000000000000000e+00 5.0000000000000000e+00
-5.0000000000000000e+00 5.0000000000000000e+00
ITEM: ATOMS id type xs ys zs
1 1 0.489969 0.468342 0.523732
2 2 0.488007 0.373766 0.489835
3 2 0.450096 0.526974 0.452519
4 1 0.519184 0.533429 0.787349
5 2 0.614749 0.563366 0.791444
6 2 0.501864 0.507791 0.690327
ITEM: TIMESTEP
4900
ITEM: NUMBER OF ATOMS
6
ITEM: BOX BOUNDS pp pp pp
-5.0000000000000000e+00 5.0000000000000000e+00
-5.0000000000000000e+00 5.0000000000000000e+00
-5.0000000000000000e+00 5.0000000000000000e+00
ITEM: ATOMS id type xs ys zs
1 1 0.482194 0.464434 0.525288
2 2 0.489342 0.370052 0.491563
3 2 0.432636 0.517781 0.456032
4 1 0.52757 0.53727 0.78608
5 2 0.619314 0.577238 0.780406
6 2 0.503737 0.507882 0.691564
ITEM: TIMESTEP
5000
ITEM: NUMBER OF ATOMS
6
ITEM: BOX BOUNDS pp pp pp
-5.0000000000000000e+00 5.0000000000000000e+00
-5.0000000000000000e+00 5.0000000000000000e+00
-5.0000000000000000e+00 5.0000000000000000e+00
ITEM: ATOMS id type xs ys zs
1 1 0.474286 0.461943 0.529989
2 2 0.485342 0.366566 0.500331
3 2 0.427829 0.511588 0.455992
4 1 0.535917 0.539516 0.781847
5 2 0.620156 0.591324 0.765505
6 2 0.504741 0.507368 0.690301
ITEM: TIMESTEP
5100
ITEM: NUMBER OF ATOMS
6
ITEM: BOX BOUNDS pp pp pp
-5.0000000000000000e+00 5.0000000000000000e+00
-5.0000000000000000e+00 5.0000000000000000e+00
-5.0000000000000000e+00 5.0000000000000000e+00
ITEM: ATOMS id type xs ys zs
1 1 0.469419 0.460026 0.53157
2 2 0.462643 0.361556 0.512715
3 2 0.423752 0.508636 0.456424
4 1 0.541819 0.541642 0.779739
5 2 0.625659 0.593832 0.762762
6 2 0.509571 0.509503 0.688598
ITEM: TIMESTEP
5200
ITEM: NUMBER OF ATOMS
6
ITEM: BOX BOUNDS pp pp pp
-5.0000000000000000e+00 5.0000000000000000e+00
-5.0000000000000000e+00 5.0000000000000000e+00
-5.0000000000000000e+00 5.0000000000000000e+00
ITEM: ATOMS id type xs ys zs
1 1 0.464926 0.457792 0.53101
2 2 0.435574 0.362364 0.519632
3 2 0.442423 0.506882 0.446275
4 1 0.545855 0.54517 0.780274
5 2 0.641529 0.570294 0.76424
6 2 0.509365 0.513457 0.690749
ITEM: TIMESTEP
5300
ITEM: NUMBER OF ATOMS
6
ITEM: BOX BOUNDS pp pp pp
-5.0000000000000000e+00 5.0000000000000000e+00
-5.0000000000000000e+00 5.0000000000000000e+00
-5.0000000000000000e+00 5.0000000000000000e+00
ITEM: ATOMS id type xs ys zs
1 1 0.465051 0.457295 0.533684
2 2 0.403162 0.378437 0.526905
3 2 0.468384 0.501334 0.443433
4 1 0.545965 0.547138 0.77707
5 2 0.645116 0.533459 0.771514
6 2 0.508487 0.516403 0.687455
ITEM: TIMESTEP
5400
ITEM: NUMBER OF ATOMS
6
ITEM: BOX BOUNDS pp pp pp
-5.0000000000000000e+00 5.0000000000000000e+00
-5.0000000000000000e+00 5.0000000000000000e+00
-5.0000000000000000e+00 5.0000000000000000e+00
ITEM: ATOMS id type xs ys zs
1 1 0.466577 0.457751 0.534109
2 2 0.392423 0.390366 0.526475
3 2 0.479251 0.499516 0.443592
4 1 0.544713 0.547165 0.776199
5 2 0.639549 0.515069 0.780964
6 2 0.509584 0.517024 0.685366
ITEM: TIMESTEP
5500
ITEM: NUMBER OF ATOMS
6
ITEM: BOX BOUNDS pp pp pp
-5.0000000000000000e+00 5.0000000000000000e+00
-5.0000000000000000e+00 5.0000000000000000e+00
-5.0000000000000000e+00 5.0000000000000000e+00
ITEM: ATOMS id type xs ys zs
1 1 0.467848 0.459829 0.529768
2 2 0.405699 0.382221 0.515372
3 2 0.480004 0.50601 0.44137
4 1 0.542701 0.545093 0.780902
5 2 0.638565 0.516172 0.784703
6 2 0.508297 0.517468 0.68921
ITEM: TIMESTEP
5600
ITEM: NUMBER OF ATOMS
6
ITEM: BOX BOUNDS pp pp pp
-5.0000000000000000e+00 5.0000000000000000e+00
-5.0000000000000000e+00 5.0000000000000000e+00
-5.0000000000000000e+00 5.0000000000000000e+00
ITEM: ATOMS id type xs ys zs
1 1 0.474287 0.465596 0.527062
2 2 0.432333 0.376632 0.506488
3 2 0.45791 0.525883 0.448345
4 1 0.536186 0.537182 0.783877
5 2 0.636281 0.541982 0.781832
6 2 0.507256 0.511398 0.689712
ITEM: TIMESTEP
5700
ITEM: NUMBER OF ATOMS
6
ITEM: BOX BOUNDS pp pp pp
-5.0000000000000000e+00 5.0000000000000000e+00
-5.0000000000000000e+00 5.0000000000000000e+00
-5.0000000000000000e+00 5.0000000000000000e+00
ITEM: ATOMS id type xs ys zs
1 1 0.478693 0.471045 0.526592
2 2 0.462884 0.375603 0.499401
3 2 0.453329 0.529423 0.448837
4 1 0.531045 0.530522 0.784952
5 2 0.625869 0.56249 0.778967
6 2 0.503367 0.507611 0.68956
ITEM: TIMESTEP
5800
ITEM: NUMBER OF ATOMS
6
ITEM: BOX BOUNDS pp pp pp
-5.0000000000000000e+00 5.0000000000000000e+00
-5.0000000000000000e+00 5.0000000000000000e+00
-5.0000000000000000e+00 5.0000000000000000e+00
ITEM: ATOMS id type xs ys zs
1 1 0.482027 0.473412 0.5239
2 2 0.475264 0.378549 0.491412
3 2 0.452839 0.533369 0.448719
4 1 0.52743 0.527502 0.78771
5 2 0.619188 0.567693 0.784261
6 2 0.502602 0.505878 0.691333
ITEM: TIMESTEP
5900
ITEM: NUMBER OF ATOMS
6
ITEM: BOX BOUNDS pp pp pp
-5.0000000000000000e+00 5.0000000000000000e+00
-5.0000000000000000e+00 5.0000000000000000e+00
-5.0000000000000000e+00 5.0000000000000000e+00
ITEM: ATOMS id type xs ys zs
1 1 0.487278 0.476107 0.521942
2 2 0.480068 0.38226 0.486758
3 2 0.448255 0.537604 0.452712
4 1 0.522303 0.524822 0.789169
5 2 0.616192 0.559636 0.793222
6 2 0.503417 0.505757 0.690959
ITEM: TIMESTEP
6000
ITEM: NUMBER OF ATOMS
6
ITEM: BOX BOUNDS pp pp pp
-5.0000000000000000e+00 5.0000000000000000e+00
-5.0000000000000000e+00 5.0000000000000000e+00
-5.0000000000000000e+00 5.0000000000000000e+00
ITEM: ATOMS id type xs ys zs
1 1 0.493455 0.480222 0.521904
2 2 0.497946 0.391476 0.474971
3 2 0.460695 0.548083 0.455405
4 1 0.514792 0.52063 0.789535
5 2 0.612143 0.543129 0.797674
6 2 0.498311 0.503797 0.690393
ITEM: TIMESTEP
6100
ITEM: NUMBER OF ATOMS
6
ITEM: BOX BOUNDS pp pp pp
-5.0000000000000000e+00 5.0000000000000000e+00
-5.0000000000000000e+00 5.0000000000000000e+00
-5.0000000000000000e+00 5.0000000000000000e+00
ITEM: ATOMS id type xs ys zs
1 1 0.501486 0.486708 0.520706
2 2 0.50683 0.400167 0.469917
3 2 0.469052 0.557367 0.45703
4 1 0.50636 0.513774 0.790475
5 2 0.603615 0.532693 0.805828
6 2 0.495974 0.502112 0.689751
ITEM: TIMESTEP
6200
ITEM: NUMBER OF ATOMS
6
ITEM: BOX BOUNDS pp pp pp
-5.0000000000000000e+00 5.0000000000000000e+00
-5.0000000000000000e+00 5.0000000000000000e+00
-5.0000000000000000e+00 5.0000000000000000e+00
ITEM: ATOMS id type xs ys zs
1 1 0.507051 0.493145 0.518416
2 2 0.506535 0.405888 0.468571
3 2 0.4719 0.56382 0.456224
4 1 0.501144 0.506546 0.792309
5 2 0.594718 0.535074 0.814177
6 2 0.496772 0.500124 0.690798
ITEM: TIMESTEP
6300
ITEM: NUMBER OF ATOMS
6
ITEM: BOX BOUNDS pp pp pp
-5.0000000000000000e+00 5.0000000000000000e+00
-5.0000000000000000e+00 5.0000000000000000e+00
-5.0000000000000000e+00 5.0000000000000000e+00
ITEM: ATOMS id type xs ys zs
1 1 0.507121 0.4982 0.518851
2 2 0.518825 0.414266 0.464852
3 2 0.478309 0.571068 0.455953
4 1 0.500258 0.500575 0.792186
5 2 0.591278 0.53678 0.813462
6 2 0.49447 0.497332 0.690552
ITEM: TIMESTEP
6400
ITEM: NUMBER OF ATOMS
6
ITEM: BOX BOUNDS pp pp pp
-5.0000000000000000e+00 5.0000000000000000e+00
-5.0000000000000000e+00 5.0000000000000000e+00
-5.0000000000000000e+00 5.0000000000000000e+00
ITEM: ATOMS id type xs ys zs
1 1 0.504779 0.50341 0.52101
2 2 0.523505 0.425653 0.46016
3 2 0.457853 0.573803 0.466769
4 1 0.503207 0.495051 0.789901
5 2 0.594789 0.529445 0.811798
6 2 0.4971 0.495533 0.688105
ITEM: TIMESTEP
6500
ITEM: NUMBER OF ATOMS
6
ITEM: BOX BOUNDS pp pp pp
-5.0000000000000000e+00 5.0000000000000000e+00
-5.0000000000000000e+00 5.0000000000000000e+00
-5.0000000000000000e+00 5.0000000000000000e+00
ITEM: ATOMS id type xs ys zs
1 1 0.497439 0.509251 0.518817
2 2 0.52517 0.443921 0.447692
3 2 0.431885 0.573222 0.477466
4 1 0.511219 0.489092 0.792142
5 2 0.606205 0.515881 0.809791
6 2 0.499316 0.493273 0.691105
ITEM: TIMESTEP
6600
ITEM: NUMBER OF ATOMS
6
ITEM: BOX BOUNDS pp pp pp
-5.0000000000000000e+00 5.0000000000000000e+00
-5.0000000000000000e+00 5.0000000000000000e+00
-5.0000000000000000e+00 5.0000000000000000e+00
ITEM: ATOMS id type xs ys zs
1 1 0.488879 0.512856 0.519732
2 2 0.515968 0.453499 0.443309
3 2 0.424021 0.580739 0.48389
4 1 0.520106 0.484836 0.791476
5 2 0.616054 0.511314 0.803295
6 2 0.50134 0.491083 0.691613
ITEM: TIMESTEP
6700
ITEM: NUMBER OF ATOMS
6
ITEM: BOX BOUNDS pp pp pp
-5.0000000000000000e+00 5.0000000000000000e+00
-5.0000000000000000e+00 5.0000000000000000e+00
-5.0000000000000000e+00 5.0000000000000000e+00
ITEM: ATOMS id type xs ys zs
1 1 0.483597 0.514593 0.523104
2 2 0.495262 0.446294 0.45032
3 2 0.425168 0.587919 0.486945
4 1 0.526039 0.483202 0.788025
5 2 0.622635 0.508352 0.797145
6 2 0.503985 0.492427 0.688942
ITEM: TIMESTEP
6800
ITEM: NUMBER OF ATOMS
6
ITEM: BOX BOUNDS pp pp pp
-5.0000000000000000e+00 5.0000000000000000e+00
-5.0000000000000000e+00 5.0000000000000000e+00
-5.0000000000000000e+00 5.0000000000000000e+00
ITEM: ATOMS id type xs ys zs
1 1 0.478292 0.51492 0.523081
2 2 0.476856 0.443978 0.451917
3 2 0.436941 0.597818 0.484147
4 1 0.531314 0.482948 0.788411
5 2 0.630139 0.49958 0.790693
6 2 0.503593 0.492469 0.690843
ITEM: TIMESTEP
6900
ITEM: NUMBER OF ATOMS
6
ITEM: BOX BOUNDS pp pp pp
-5.0000000000000000e+00 5.0000000000000000e+00
-5.0000000000000000e+00 5.0000000000000000e+00
-5.0000000000000000e+00 5.0000000000000000e+00
ITEM: ATOMS id type xs ys zs
1 1 0.473842 0.514896 0.522719
2 2 0.452798 0.442841 0.45592
3 2 0.444983 0.602564 0.482988
4 1 0.536289 0.484125 0.788842
5 2 0.636018 0.474813 0.785089
6 2 0.505404 0.49532 0.692501
ITEM: TIMESTEP
7000
ITEM: NUMBER OF ATOMS
6
ITEM: BOX BOUNDS pp pp pp
-5.0000000000000000e+00 5.0000000000000000e+00
-5.0000000000000000e+00 5.0000000000000000e+00
-5.0000000000000000e+00 5.0000000000000000e+00
ITEM: ATOMS id type xs ys zs
1 1 0.470487 0.513754 0.525569
2 2 0.426243 0.449532 0.462197
3 2 0.461205 0.605969 0.486696
4 1 0.540484 0.486473 0.785881
5 2 0.630577 0.443021 0.779351