6
Atoms. Timestep: 0
O 0 0 0
H 0 0 -1
H 1 0 0
O 0 0 3
H 0 0 4
H 1 0 3
6
Atoms. Timestep: 10
O 0.0274571 -0.00466838 -0.0519079
H -0.357717 0.0309861 -0.974684
H 0.980142 0.0498926 0.206941
O 0.0183512 -0.000619822 3.05419
H -0.281161 0.0538655 4.01784
H 0.931665 -0.0508096 2.71365
6
Atoms. Timestep: 20
O 0.0213268 -0.0130361 -0.0659559
H -0.236439 0.0930343 -1.01303
H 1.00031 0.124512 -0.0166692
O 0.00163267 -0.000270167 3.07347
H -0.0946318 0.0703012 4.05015
H 0.966348 -0.0766495 2.86034
6
Atoms. Timestep: 30
O 0.0265423 -0.0162566 -0.0893472
H -0.296564 0.110851 -1.03128
H 1.01859 0.157572 -0.0239662
O -0.00252283 0.000921824 3.09848
H -0.071667 0.0859712 4.08862
H 0.968399 -0.111001 2.82166
6
Atoms. Timestep: 40
O 0.0338215 -0.0205539 -0.11158
H -0.34008 0.135907 -1.01327
H 0.991922 0.19795 -0.0303959
O -0.00188298 0.00306316 3.1226
H -0.0587034 0.0879862 4.10735
H 0.899932 -0.14423 2.76146
6
Atoms. Timestep: 50
O 0.0356411 -0.0289498 -0.123017
H -0.316052 0.189706 -1.04356
H 0.995276 0.272768 -0.123363
O -0.0146217 0.00724902 3.13828
H 0.0856478 0.069646 4.1416
H 0.901509 -0.187685 2.78307
6
Atoms. Timestep: 60
O 0.0473364 -0.0324787 -0.145965
H -0.412374 0.195339 -0.9952
H 0.976199 0.315432 -0.0841567
O -0.0139337 0.0115693 3.16348
H 0.0993735 0.0601935 4.14411
H 0.806633 -0.23909 2.6573
6
Atoms. Timestep: 70
O 0.0553947 -0.0440466 -0.156483
H -0.422183 0.262602 -0.983872
H 0.94489 0.422644 -0.163459
O -0.0252839 0.0200989 3.18052
H 0.254343 0.00360724 4.13776
H 0.74503 -0.308755 2.62807
6
Atoms. Timestep: 80
O 0.0700472 -0.0484386 -0.173184
H -0.523088 0.259095 -0.918901
H 0.915655 0.482541 -0.145193
O -0.0279259 0.0274112 3.19939
H 0.344978 -0.0429349 4.1256
H 0.593906 -0.364952 2.52256
6
Atoms. Timestep: 90
O 0.084346 -0.0573028 -0.182726
H -0.580197 0.286604 -0.848571
H 0.857169 0.57854 -0.174101
O -0.0318998 0.0371503 3.21462
H 0.46337 -0.129637 4.06342
H 0.427232 -0.415646 2.45309
6
Atoms. Timestep: 100
O 0.0984348 -0.0612475 -0.189606
H -0.65475 0.264468 -0.768179
H 0.817425 0.640038 -0.172809
O -0.0342784 0.0459987 3.22592
H 0.568389 -0.225581 3.97739
H 0.250643 -0.436895 2.38721
6
Atoms. Timestep: 110
O 0.110475 -0.0641965 -0.191072
H -0.703232 0.234824 -0.690135
H 0.76957 0.688224 -0.175797
O -0.032883 0.0509993 3.23154
H 0.631538 -0.311941 3.8794
H 0.0705885 -0.401639 2.3443
6
Atoms. Timestep: 120
O 0.119215 -0.0665927 -0.185751
H -0.736037 0.204206 -0.639719
H 0.733997 0.727867 -0.18945
O -0.0333726 0.0557666 3.23304
H 0.682646 -0.40619 3.76551
H -0.0430952 -0.354051 2.31308
6
Atoms. Timestep: 130
O 0.12391 -0.0658314 -0.175091
H -0.749114 0.154007 -0.612001
H 0.715984 0.740294 -0.207118
O -0.0317253 0.0553453 3.22927
H 0.69721 -0.461725 3.67589
H -0.127235 -0.26614 2.28326
6
Atoms. Timestep: 140
O 0.125749 -0.0656088 -0.157385
H -0.745253 0.119831 -0.622103
H 0.699974 0.753878 -0.249634
O -0.0321342 0.0549338 3.22256
H 0.707522 -0.515405 3.58685
H -0.148101 -0.188869 2.25044
6
Atoms. Timestep: 150
O 0.123931 -0.061001 -0.135383
H -0.728289 0.0571957 -0.649712
H 0.707399 0.737694 -0.296559
O -0.0317578 0.0515579 3.21058
H 0.705804 -0.545208 3.53036
H -0.147885 -0.0998022 2.22232
6
Atoms. Timestep: 160
O 0.120048 -0.0548835 -0.1087
H -0.695825 -0.00655723 -0.693166
H 0.717437 0.71199 -0.360808
O -0.0321151 0.0483973 3.19566
H 0.703362 -0.571514 3.47919
H -0.120651 -0.0309704 2.19457
6
Atoms. Timestep: 170
O 0.114605 -0.0450883 -0.0816221
H -0.659113 -0.09524 -0.719441
H 0.742394 0.665218 -0.41167
O -0.0315172 0.0449685 3.17723
H 0.695259 -0.591321 3.44342
H -0.097318 0.0232441 2.17024
6
Atoms. Timestep: 180
O 0.109245 -0.0342307 -0.0541399
H -0.619777 -0.184758 -0.728077
H 0.765004 0.611593 -0.455474
O -0.0303119 0.0423433 3.15658
H 0.685303 -0.610647 3.40919
H -0.0833637 0.0550475 2.14837
6
Atoms. Timestep: 190
O 0.10492 -0.0236157 -0.0277491
H -0.589496 -0.269607 -0.710814
H 0.785016 0.560989 -0.479709
O -0.0286619 0.0406492 3.13441
H 0.675904 -0.631741 3.37226
H -0.0817875 0.0700024 2.12537
6
Atoms. Timestep: 200
O 0.101891 -0.0147584 -0.00162204
H -0.567485 -0.338196 -0.676224
H 0.79635 0.520219 -0.490209
O -0.0264673 0.0391012 3.11052
H 0.664743 -0.649971 3.33485
H -0.0907317 0.0815786 2.10314
6
Atoms. Timestep: 210
O 0.100062 -0.00849622 0.0251509
H -0.555653 -0.386302 -0.635578
H 0.79874 0.494666 -0.492392
O -0.0247823 0.0379518 3.08574
H 0.656771 -0.667872 3.29082
H -0.0946985 0.0919877 2.07706
6
Atoms. Timestep: 220
O 0.099161 -0.00469147 0.052305
H -0.553364 -0.415959 -0.590213
H 0.793171 0.483419 -0.484155
O -0.0231797 0.0364056 3.05927
H 0.64876 -0.681006 3.25137
H -0.0945453 0.110178 2.05213
6
Atoms. Timestep: 230
O 0.0988666 -0.00283034 0.0805018
H -0.557363 -0.429386 -0.549635
H 0.780457 0.483722 -0.474511
O -0.022176 0.0352656 3.03217
H 0.643296 -0.693067 3.21181
H -0.0836239 0.123918 2.02398
6
Atoms. Timestep: 240
O 0.0990235 -0.00211297 0.108328
H -0.56746 -0.432481 -0.507553
H 0.764231 0.492787 -0.458315
O -0.0209045 0.0341587 3.00424
H 0.636083 -0.701358 3.18332
H -0.0727605 0.132422 1.99591
6
Atoms. Timestep: 250
O 0.0993991 -0.00189161 0.135603
H -0.579673 -0.428015 -0.470198
H 0.745138 0.506173 -0.442832
O -0.0196307 0.0336758 2.97693
H 0.628709 -0.708675 3.16116
H -0.0602601 0.126038 1.9658
6
Atoms. Timestep: 260
O 0.0997759 -0.00185313 0.160665
H -0.593546 -0.420176 -0.434165
H 0.726503 0.522203 -0.424128
O -0.0180784 0.0333021 2.95089
H 0.620118 -0.713664 3.15035
H -0.0497796 0.112479 1.93741
6
Atoms. Timestep: 270
O 0.099976 -0.00203231 0.182606
H -0.606648 -0.409616 -0.404261
H 0.708511 0.539007 -0.406124
O -0.016715 0.0330249 2.92791
H 0.612261 -0.717119 3.14439
H -0.0356448 0.0958121 1.91188
6
Atoms. Timestep: 280
O 0.10004 -0.00251775 0.199915
H -0.619015 -0.397874 -0.380285
H 0.692529 0.556299 -0.388744
O -0.0155053 0.0325181 2.9094
H 0.605535 -0.71916 3.14233
H -0.0207936 0.0845695 1.89162
6
Atoms. Timestep: 290
O 0.100195 -0.00326187 0.211489
H -0.630274 -0.385416 -0.363065
H 0.678138 0.573255 -0.374392
O -0.0144741 0.0319755 2.89688
H 0.600583 -0.721349 3.13929
H -0.00901785 0.0777664 1.87811
6
Atoms. Timestep: 300
O 0.100574 -0.00408515 0.216874
H -0.640284 -0.373127 -0.353301
H 0.665354 0.589169 -0.365415
O -0.0134355 0.0314438 2.89094
H 0.597365 -0.724808 3.13586
H -0.00549607 0.0745285 1.87163
6
Atoms. Timestep: 310
O 0.100934 -0.00470561 0.216292
H -0.648291 -0.362583 -0.349722
H 0.655265 0.602941 -0.360837
O -0.0123707 0.0308625 2.89116
H 0.595211 -0.728995 3.13317
H -0.00786576 0.0734747 1.87195
6
Atoms. Timestep: 320
O 0.100893 -0.00489609 0.211316
H -0.653119 -0.354475 -0.353849
H 0.648227 0.613426 -0.361527
O -0.0113309 0.030072 2.89606
H 0.59379 -0.733227 3.13404
H -0.0104314 0.0746826 1.87708
6
Atoms. Timestep: 330
O 0.100136 -0.00435296 0.203661
H -0.654304 -0.350647 -0.362594
H 0.645652 0.619602 -0.364458
O -0.0102509 0.0289915 2.90357
H 0.592356 -0.736686 3.13977
H -0.0103563 0.0766681 1.88524
6
Atoms. Timestep: 340
O 0.098708 -0.00301064 0.195529
H -0.651747 -0.350609 -0.375458
H 0.646483 0.621279 -0.370255
O -0.00903277 0.027754 2.91177
H 0.590803 -0.739864 3.14865
H -0.00886745 0.076466 1.89399
6
Atoms. Timestep: 350
O 0.0967572 -0.000956219 0.188288
H -0.646474 -0.354448 -0.388257
H 0.650638 0.619243 -0.375817
O -0.00755446 0.0264044 2.91909
H 0.588972 -0.743019 3.15794
H -0.00896401 0.0743105 1.9018
6
Atoms. Timestep: 360
O 0.094508 0.00144509 0.18308
H -0.639449 -0.360118 -0.400347
H 0.656254 0.61494 -0.380689
O -0.00591786 0.0250084 2.92467
H 0.587507 -0.746718 3.16324
H -0.0104159 0.0720252 1.90764
6
Atoms. Timestep: 370
O 0.0921226 0.00386263 0.180255
H -0.63213 -0.366412 -0.409738
H 0.662495 0.610088 -0.382658
O -0.00418851 0.0234926 2.92799
H 0.586789 -0.751116 3.16306
H -0.0128459 0.0732567 1.91125
6
Atoms. Timestep: 380
O 0.0897584 0.00609353 0.179906
H -0.625435 -0.371828 -0.416231
H 0.668014 0.605931 -0.381747
O -0.00244742 0.0219281 2.92903
H 0.586868 -0.756325 3.15629
H -0.0152476 0.0774613 1.91267
6
Atoms. Timestep: 390
O 0.0875376 0.00811363 0.181772
H -0.620215 -0.375624 -0.419602
H 0.672037 0.603365 -0.378418
O -0.000602035 0.0203095 2.92788
H 0.587072 -0.762038 3.14574
H -0.018737 0.0831636 1.91189
6
Atoms. Timestep: 400
O 0.0854872 0.0100144 0.185281
H -0.616938 -0.37761 -0.419699
H 0.674259 0.60274 -0.373007
O 0.00134621 0.0187132 2.92497
H 0.586785 -0.767881 3.13365
H -0.0223273 0.0867852 1.90917
6
Atoms. Timestep: 410
O 0.0835762 0.0118336 0.189828
H -0.615659 -0.377298 -0.418064
H 0.674258 0.604243 -0.366977
O 0.00339637 0.0170577 2.92081
H 0.585632 -0.773403 3.12403
H -0.0246613 0.0878941 1.90502
6
Atoms. Timestep: 420
O 0.0817386 0.0136037 0.194464
H -0.616569 -0.374931 -0.414725
H 0.672436 0.608029 -0.359993
O 0.00543711 0.0153306 2.9162
H 0.583717 -0.778446 3.11804
H -0.0232398 0.0861017 1.90016
6
Atoms. Timestep: 430
O 0.0800199 0.015275 0.198514
H -0.619454 -0.369946 -0.411606
H 0.668339 0.614093 -0.353956
O 0.00748603 0.0134566 2.91196
H 0.581044 -0.782957 3.11652
H -0.0188238 0.0827815 1.89558
6
Atoms. Timestep: 440
O 0.0785004 0.0168622 0.201142
H -0.624575 -0.362934 -0.408091
H 0.662482 0.622383 -0.348478
O 0.00955578 0.0114984 2.90893
H 0.577933 -0.787543 3.11749
H -0.0134695 0.077954 1.89207
6
Atoms. Timestep: 450
O 0.077243 0.0183399 0.202054
H -0.631415 -0.353754 -0.405596
H 0.654674 0.632428 -0.345109
O 0.0117211 0.00941483 2.90761
H 0.574557 -0.792499 3.11956
H -0.00985639 0.0733016 1.89058
6
Atoms. Timestep: 460
O 0.0761352 0.0197889 0.201063
H -0.639495 -0.343566 -0.403625
H 0.646093 0.643504 -0.342955
O 0.0139334 0.00720288 2.90822
H 0.571531 -0.798316 3.12083
H -0.00769991 0.0699638 1.89113
6
Atoms. Timestep: 470
O 0.0749806 0.0213391 0.198562
H -0.647605 -0.333109 -0.403162
H 0.637481 0.654372 -0.342509
O 0.0162077 0.00474287 2.91046
H 0.568859 -0.804538 3.12148
H -0.00607944 0.0693017 1.89373
6
Atoms. Timestep: 480
O 0.0735554 0.0232554 0.195103
H -0.654777 -0.323964 -0.403898
H 0.63024 0.663657 -0.343308
O 0.0185523 0.00204884 2.91378
H 0.566687 -0.811201 3.12175
H -0.00408462 0.0698782 1.89735
6
Atoms. Timestep: 490
O 0.0717116 0.0257759 0.191451
H -0.660086 -0.317171 -0.40574
H 0.625172 0.670127 -0.345494
O 0.0210818 -0.000908035 2.91736
H 0.5646 -0.817825 3.12272
H -0.00250576 0.0701665 1.90145
6
Atoms. Timestep: 500
O 0.0693649 0.0290128 0.188335
H -0.663085 -0.313242 -0.408513
H 0.622755 0.673195 -0.348956
O 0.0238168 -0.00407606 2.92057
H 0.562729 -0.824579 3.12396
H -0.00137963 0.0688304 1.90499
6
Atoms. Timestep: 510
O 0.0664932 0.032908 0.186242
H -0.663886 -0.312117 -0.411418
H 0.623137 0.672973 -0.352495
O 0.0267573 -0.00750344 2.92286
H 0.561136 -0.831242 3.12464
H -0.000460629 0.0671633 1.90765
6
Atoms. Timestep: 520
O 0.0631828 0.0372486 0.185552
H -0.662995 -0.312603 -0.414526
H 0.625522 0.670268 -0.355708
O 0.0298388 -0.0111699 2.92398
H 0.560257 -0.838131 3.12267
H 0.000775407 0.0665458 1.90908
6
Atoms. Timestep: 530
O 0.0595828 0.041838 0.186242
H -0.661501 -0.313796 -0.416466
H 0.629332 0.666276 -0.357089
O 0.0330706 -0.015067 2.92385
H 0.56022 -0.845465 3.11679
H 0.00135323 0.0680768 1.90943
6
Atoms. Timestep: 540
O 0.0558854 0.0464896 0.188267
H -0.660316 -0.313975 -0.417496
H 0.63315 0.662269 -0.357145
O 0.0364865 -0.0191497 2.92257
H 0.560887 -0.853344 3.10656
H 0.000149474 0.071109 1.90885
6
Atoms. Timestep: 550
O 0.0521828 0.0511402 0.191198
H -0.660543 -0.312349 -0.416763
H 0.636452 0.659398 -0.355121
O 0.0401045 -0.0234172 2.92039
H 0.562035 -0.861652 3.09342
H -0.00273096 0.0745834 1.90739
6
Atoms. Timestep: 560
O 0.0484824 0.0557563 0.194639
H -0.662649 -0.307667 -0.415314
H 0.638305 0.658461 -0.351952
O 0.0439023 -0.0279337 2.91762
H 0.56333 -0.869831 3.08008
H -0.00531846 0.0774365 1.90547
6
Atoms. Timestep: 570
O 0.0447294 0.0603948 0.19794
H -0.667168 -0.299561 -0.413164
H 0.638598 0.660067 -0.347574
O 0.0478313 -0.0327382 2.91473
H 0.564761 -0.877808 3.06934
H -0.00531628 0.0783371 1.90312
6
Atoms. Timestep: 580
O 0.0409242 0.0651185 0.200552
H -0.674281 -0.287516 -0.410963
H 0.636874 0.664533 -0.342995
O 0.0519474 -0.0379073 2.9122
H 0.565966 -0.885287 3.06343
H -0.00261963 0.0763747 1.90098
6
Atoms. Timestep: 590
O 0.0371077 0.0699903 0.201972
H -0.684197 -0.271494 -0.408739
H 0.632991 0.672008 -0.338814
O 0.056304 -0.043425 2.91057
H 0.566971 -0.892785 3.06206
H 0.00160268 0.0706274 1.89922
6
Atoms. Timestep: 600
O 0.0333004 0.0750182 0.201905
H -0.696853 -0.251718 -0.406309
H 0.627039 0.682381 -0.335174
O 0.0609793 -0.0493885 2.91016
H 0.567725 -0.900461 3.06406
H 0.00568102 0.0630031 1.89876
6
Atoms. Timestep: 610
O 0.0294424 0.080197 0.200412
H -0.711634 -0.22862 -0.404037
H 0.619319 0.69509 -0.332431
O 0.0659205 -0.0558087 2.91114
H 0.568751 -0.909002 3.06607
H 0.00996134 0.0554405 1.89976
6
Atoms. Timestep: 620
O 0.0254068 0.0856326 0.197767
H -0.727743 -0.203716 -0.401257
H 0.610955 0.708965 -0.329915
O 0.0711516 -0.0628014 2.91325
H 0.570174 -0.918477 3.06665
H 0.0140375 0.0508492 1.90245
6
Atoms. Timestep: 630
O 0.0210626 0.0915492 0.194676
H -0.743826 -0.178553 -0.398537
H 0.602747 0.722241 -0.328629
O 0.0766783 -0.0703023 2.91603
H 0.572017 -0.929107 3.06399
H 0.0177155 0.0481874 1.90605
6
Atoms. Timestep: 640
O 0.0162502 0.0982849 0.191836
H -0.758777 -0.155635 -0.395232
H 0.59625 0.732898 -0.32844
O 0.0826002 -0.0783424 2.91869
H 0.573942 -0.940656 3.05954
H 0.019629 0.0468653 1.90993
6
Atoms. Timestep: 650
O 0.010826 0.106064 0.190087
H -0.771404 -0.136279 -0.392372
H 0.592092 0.739324 -0.330508
O 0.0888766 -0.0868316 2.92058
H 0.575837 -0.95294 3.05326
H 0.0209932 0.0446397 1.9131
6
Atoms. Timestep: 660
O 0.00468842 0.114969 0.189915
H -0.781338 -0.121558 -0.389733
H 0.591029 0.740608 -0.334135
O 0.0954701 -0.0958191 2.92113
H 0.577717 -0.965661 3.04641
H 0.0228727 0.0426588 1.91501
6
Atoms. Timestep: 670
O -0.00209575 0.124855 0.191585
H -0.788814 -0.110958 -0.387451
H 0.592604 0.737011 -0.338957
O 0.102285 -0.10521 2.92017
H 0.579672 -0.978756 3.03725
H 0.0263254 0.0409058 1.91537
6
Atoms. Timestep: 680
O -0.00929018 0.135418 0.19495
H -0.79483 -0.103155 -0.384588
H 0.595832 0.729847 -0.3439
O 0.109339 -0.114954 2.91775
H 0.581683 -0.992416 3.02502
H 0.0293448 0.0409169 1.91463
6
Atoms. Timestep: 690
O -0.0165976 0.146277 0.199547
H -0.800813 -0.096188 -0.380121
H 0.599448 0.721242 -0.347936
O 0.116612 -0.124896 2.91428
H 0.583644 -1.00677 3.00795
H 0.0302883 0.0423709 1.91337
6
Atoms. Timestep: 700
O -0.0237837 0.15702 0.204789
H -0.80791 -0.0874049 -0.374256
H 0.601798 0.713586 -0.350939
O 0.124063 -0.134996 2.91025
H 0.585443 -1.02154 2.98703
H 0.0290315 0.045792 1.91228
6
Atoms. Timestep: 710
O -0.0307815 0.167404 0.209858
H -0.817229 -0.0751673 -0.36673
H 0.602365 0.708904 -0.352033
O 0.131566 -0.145205 2.90623
H 0.587115 -1.03628 2.96465
H 0.0280881 0.0502011 1.91157
6
Atoms. Timestep: 720
O -0.037572 0.177305 0.214184
H -0.828885 -0.0577783 -0.358997
H 0.600149 0.708545 -0.352436
O 0.139047 -0.15549 2.9027
H 0.588609 -1.05056 2.94487
H 0.0295078 0.0535405 1.91131
6
Atoms. Timestep: 730
O -0.0441618 0.186808 0.21713
H -0.843159 -0.0354402 -0.350357
H 0.59561 0.712986 -0.35178
O 0.146513 -0.165772 2.90004
H 0.589904 -1.06448 2.93131
H 0.0331201 0.0530572 1.91109
6
Atoms. Timestep: 740
O -0.0505166 0.195941 0.218588
H -0.859404 -0.00814863 -0.341792
H 0.588431 0.722019 -0.351472
O 0.153988 -0.175963 2.89843
H 0.590803 -1.07794 2.92512
H 0.0378771 0.0469822 1.91083
6
Atoms. Timestep: 750
O -0.0566627 0.204702 0.218547
H -0.877162 0.0226824 -0.332384
H 0.579717 0.734763 -0.350572
O 0.161417 -0.186014 2.89783
H 0.591489 -1.0911 2.9252
H 0.0432952 0.0370508 1.91059
6
Atoms. Timestep: 760
O -0.0626118 0.212966 0.21749
H -0.89533 0.0559224 -0.322765
H 0.570009 0.749945 -0.349388
O 0.168665 -0.195839 2.89804
H 0.592095 -1.10381 2.92755
H 0.0499418 0.0260885 1.91087
6
Atoms. Timestep: 770
O -0.0683563 0.220698 0.215978
H -0.912955 0.0894194 -0.312504
H 0.56048 0.765669 -0.347427
O 0.175653 -0.205351 2.89864
H 0.592726 -1.11619 2.92878
H 0.0567323 0.0175115 1.91196
6
Atoms. Timestep: 780
O -0.0738532 0.227975 0.214724
H -0.929144 0.120917 -0.301868
H 0.551999 0.779864 -0.34524
O 0.182351 -0.21439 2.89916
H 0.593159 -1.12819 2.92588
H 0.0619141 0.0117843 1.9136
6
Atoms. Timestep: 790
O -0.0791057 0.234969 0.214405
H -0.942986 0.148405 -0.291657
H 0.545121 0.790451 -0.343821
O 0.18876 -0.222885 2.89906
H 0.593213 -1.13967 2.91908
H 0.0642159 0.00901905 1.91545
6
Atoms. Timestep: 800
O -0.084214 0.241907 0.21543
H -0.954159 0.170046 -0.282381
H 0.540806 0.795773 -0.343442
O 0.194803 -0.230761 2.89798
H 0.592952 -1.15056 2.90912
H 0.0651322 0.00782415 1.9166
6
Atoms. Timestep: 810
O -0.089246 0.248885 0.218057
H -0.962336 0.185746 -0.275501
H 0.53869 0.795205 -0.345073
O 0.200431 -0.238073 2.8957
H 0.592437 -1.16055 2.89822
H 0.0664723 0.00797895 1.91679
6
Atoms. Timestep: 820
O -0.094225 0.255976 0.222004
H -0.968194 0.195378 -0.270204
H 0.539098 0.788885 -0.347803
O 0.205644 -0.244808 2.89239
H 0.591758 -1.16983 2.88689
H 0.0688961 0.008313 1.91548
6
Atoms. Timestep: 830
O -0.0990278 0.263015 0.226899
H -0.972236 0.200938 -0.266634
H 0.540576 0.778438 -0.352022
O 0.210552 -0.251045 2.88836
H 0.590689 -1.17831 2.87567
H 0.0708499 0.00894602 1.91359
6
Atoms. Timestep: 840
O -0.103578 0.269834 0.231959
H -0.975662 0.204015 -0.262938
H 0.542826 0.76584 -0.356198
O 0.215234 -0.256799 2.88422
H 0.589255 -1.18647 2.86352
H 0.0713744 0.00973183 1.91157
6
Atoms. Timestep: 850
O -0.107819 0.276137 0.236598
H -0.979154 0.20756 -0.259347
H 0.544411 0.753698 -0.360434
O 0.219738 -0.26222 2.88049
H 0.587441 -1.19411 2.85071
H 0.0709224 0.0119585 1.91066
6
Atoms. Timestep: 860
O -0.111801 0.281793 0.240175
H -0.983539 0.21335 -0.254993
H 0.545108 0.743926 -0.363736
O 0.22406 -0.267373 2.87768
H 0.585469 -1.20145 2.83745
H 0.0711818 0.0153101 1.91072
6
Atoms. Timestep: 870
O -0.115547 0.286757 0.242426
H -0.989111 0.222914 -0.250215
H 0.544269 0.737945 -0.36662
O 0.228262 -0.272359 2.87594
H 0.583364 -1.20838 2.8261
H 0.0724618 0.0189857 1.91199
6
Atoms. Timestep: 880
O -0.119083 0.291147 0.243262
H -0.995929 0.236499 -0.244588
H 0.541847 0.736073 -0.369153
O 0.232408 -0.277137 2.8753
H 0.581133 -1.21523 2.81825
H 0.074249 0.0202992 1.9136
6
Atoms. Timestep: 890
O -0.122443 0.295078 0.242872
H -1.00391 0.253706 -0.237902
H 0.538115 0.737948 -0.371436
O 0.236538 -0.281717 2.87548
H 0.578786 -1.22205 2.81581
H 0.0760752 0.0183396 1.9151
6
Atoms. Timestep: 900
O -0.12568 0.298606 0.241668
H -1.0125 0.273914 -0.230358
H 0.533257 0.742642 -0.373545
O 0.240593 -0.286047 2.87615
H 0.576355 -1.22874 2.8181
H 0.0789833 0.0128441 1.91578
6
Atoms. Timestep: 910
O -0.128836 0.301747 0.240086
H -1.02146 0.295854 -0.221419
H 0.528195 0.748867 -0.374864
O 0.244506 -0.290111 2.8769
H 0.573882 -1.23525 2.82371
H 0.0834674 0.00584691 1.91569
6
Atoms. Timestep: 920
O -0.131862 0.30446 0.238711
H -1.03013 0.318654 -0.211588
H 0.522884 0.755354 -0.375981
O 0.248258 -0.293833 2.87741
H 0.571083 -1.24139 2.82939
H 0.0887226 -0.00128453 1.91513
6
Atoms. Timestep: 930
O -0.134711 0.3068 0.237922
H -1.03839 0.340637 -0.200197
H 0.518164 0.760478 -0.376614
O 0.251884 -0.29717 2.87735
H 0.567712 -1.24726 2.83273
H 0.0927467 -0.00669542 1.91449
6
Atoms. Timestep: 940
O -0.137361 0.308819 0.238171
H -1.04575 0.360974 -0.18838
H 0.513841 0.762941 -0.377878
O 0.255398 -0.3001 2.87652
H 0.563547 -1.25267 2.83197
H 0.0948757 -0.00963983 1.91394
6
Atoms. Timestep: 950
O -0.13991 0.310706 0.239608
H -1.05213 0.378322 -0.176351
H 0.510676 0.76113 -0.379719
O 0.258769 -0.302643 2.87479
H 0.558751 -1.25774 2.82717
H 0.0961577 -0.00968939 1.91321
6
Atoms. Timestep: 960
O -0.142449 0.312631 0.242327
H -1.05737 0.392367 -0.165565
H 0.508492 0.754151 -0.383103
O 0.261993 -0.304863 2.87215
H 0.553497 -1.26237 2.81965
H 0.0979859 -0.00744977 1.91209
6
Atoms. Timestep: 970
O -0.145054 0.314816 0.246073
H -1.06166 0.402817 -0.156233
H 0.507328 0.741368 -0.388135
O 0.265143 -0.30681 2.8688
H 0.54789 -1.26671 2.81096
H 0.100397 -0.00454457 1.91019
6
Atoms. Timestep: 980
O -0.147749 0.317362 0.250402
H -1.06539 0.410375 -0.148508
H 0.506791 0.723222 -0.395106
O 0.268369 -0.308594 2.86507
H 0.541937 -1.27087 2.80295
H 0.102173 -0.00188226 1.90793
6
Atoms. Timestep: 990
O -0.150585 0.320237 0.254666
H -1.06879 0.416604 -0.142121
H 0.506255 0.700926 -0.403722
O 0.271789 -0.310297 2.86154
H 0.535642 -1.275 2.79568
H 0.103139 -0.000303971 1.90569
6
Atoms. Timestep: 1000
O -0.153661 0.323277 0.258133
H -1.07244 0.423567 -0.136307
H 0.505605 0.676328 -0.4131
O 0.275471 -0.312083 2.85875
H 0.529216 -1.27927 2.78968
H 0.104246 0.00171411 1.90451
6
Atoms. Timestep: 1010
O -0.157046 0.326221 0.260279
H -1.07636 0.433927 -0.131022
H 0.503964 0.651736 -0.423066
O 0.279463 -0.314009 2.85726
H 0.522624 -1.28359 2.78381
H 0.106765 0.00409383 1.90468
6
Atoms. Timestep: 1020
O -0.160771 0.328881 0.260732
H -1.08086 0.449369 -0.124884
H 0.501459 0.628906 -0.432947
O 0.28386 -0.316137 2.8572
H 0.515853 -1.2881 2.77917
H 0.109878 0.00754848 1.90677
6
Atoms. Timestep: 1030
O -0.164794 0.331103 0.259621
H -1.08552 0.471307 -0.117835
H 0.497278 0.609174 -0.443369
O 0.288728 -0.31834 2.85853
H 0.508624 -1.29278 2.77588
H 0.112533 0.00972447 1.91009
6
Atoms. Timestep: 1040
O -0.169129 0.332852 0.257252
H -1.09009 0.499665 -0.10846
H 0.49194 0.592469 -0.453614
O 0.294033 -0.320545 2.86067
H 0.501032 -1.2977 2.77642
H 0.114646 0.0102436 1.91404
6
Atoms. Timestep: 1050
O -0.173781 0.334084 0.254331
H -1.09385 0.534047 -0.0969015
H 0.485281 0.578206 -0.463907
O 0.299632 -0.322541 2.86306
H 0.493029 -1.3027 2.78088
H 0.118029 0.00723095 1.9167
6
Atoms. Timestep: 1060
O -0.178721 0.334803 0.251549
H -1.09614 0.573016 -0.082169
H 0.477682 0.564825 -0.473655
O 0.305394 -0.324217 2.8649
H 0.48455 -1.30751 2.78991
H 0.123358 0.0016424 1.91756
6
Atoms. Timestep: 1070
O -0.183803 0.334985 0.249641
H -1.09654 0.614979 -0.0639432
H 0.468968 0.550741 -0.483231
O 0.311276 -0.325356 2.86568
H 0.474942 -1.31204 2.80078
H 0.129375 -0.00651626 1.91604
6
Atoms. Timestep: 1080
O -0.188849 0.3346 0.249187
H -1.09449 0.658236 -0.0420844
H 0.458429 0.534272 -0.493006
O 0.317283 -0.325906 2.86488
H 0.46352 -1.31586 2.81133
H 0.13402 -0.014625 1.91324
6
Atoms. Timestep: 1090
O -0.19378 0.33368 0.250507
H -1.0901 0.701135 -0.0166232
H 0.445979 0.51364 -0.503139
O 0.323391 -0.325805 2.86243
H 0.449717 -1.319 2.81804
H 0.137224 -0.0207634 1.90923
6
Atoms. Timestep: 1100
O -0.198591 0.33229 0.25377
H -1.08299 0.74272 0.0104515
H 0.430325 0.487802 -0.514344
O 0.329529 -0.325153 2.85835
H 0.433467 -1.32109 2.8196
H 0.140966 -0.0227188 1.90469
6
Atoms. Timestep: 1110
O -0.203348 0.330734 0.258639
H -1.07392 0.781668 0.0383772
H 0.411524 0.455225 -0.526288
O 0.335706 -0.324045 2.85303
H 0.414998 -1.32246 2.81605
H 0.146615 -0.0206017 1.89943
6
Atoms. Timestep: 1120
O -0.208033 0.329305 0.264632
H -1.0631 0.81772 0.0640731
H 0.38779 0.416302 -0.53989
O 0.34206 -0.322684 2.84701
H 0.394761 -1.32294 2.80978
H 0.153273 -0.0161687 1.89405
6
Atoms. Timestep: 1130
O -0.212733 0.328441 0.270685
H -1.05161 0.850359 0.08708
H 0.359456 0.37108 -0.554229
O 0.348797 -0.321321 2.84107
H 0.373537 -1.32279 2.80436
H 0.158997 -0.0116575 1.88895
6
Atoms. Timestep: 1140
O -0.217613 0.3283 0.275825
H -1.03956 0.880724 0.10487
H 0.326115 0.322223 -0.569295
O 0.356044 -0.320216 2.83615
H 0.352382 -1.32209 2.80256
H 0.163882 -0.00917221 1.88463
6
Atoms. Timestep: 1150
O -0.223002 0.328905 0.278986
H -1.02686 0.910001 0.117838
H 0.289694 0.272135 -0.583375
O 0.363814 -0.319597 2.83303
H 0.332443 -1.3211 2.80589
H 0.169762 -0.00878735 1.88178
6
Atoms. Timestep: 1160
O -0.229109 0.329944 0.27971
H -1.01277 0.939953 0.125631
H 0.251837 0.22467 -0.596317
O 0.372102 -0.31951 2.83225
H 0.314173 -1.32003 2.81296
H 0.177176 -0.0101977 1.88075
6
Atoms. Timestep: 1170
O -0.235982 0.331011 0.278049
H -0.996131 0.971338 0.129652
H 0.214646 0.182828 -0.607742
O 0.380861 -0.31993 2.83367
H 0.297637 -1.31863 2.82231
H 0.184317 -0.0114239 1.88258
6
Atoms. Timestep: 1180
O -0.243497 0.331733 0.274665
H -0.976457 1.00417 0.131509
H 0.180382 0.148291 -0.617729
O 0.389931 -0.320595 2.83671
H 0.282567 -1.3171 2.83178
H 0.189303 -0.0121343 1.88663
6
Atoms. Timestep: 1190
O -0.251423 0.331855 0.270667
H -0.95336 1.03745 0.131738
H 0.1502 0.121788 -0.626134
O 0.398912 -0.321273 2.84027
H 0.269316 -1.31507 2.84161
H 0.192896 -0.0121337 1.89201
6
Atoms. Timestep: 1200
O -0.259479 0.331391 0.267057
H -0.927823 1.06964 0.132364
H 0.125777 0.101474 -0.632004
O 0.407398 -0.321619 2.84333
H 0.25797 -1.31275 2.85156
H 0.196288 -0.0134771 1.89609
6
Atoms. Timestep: 1210
O -0.267211 0.330344 0.264845
H -0.900995 1.09901 0.13293
H 0.106164 0.0865384 -0.635616
O 0.415068 -0.321486 2.8449
H 0.248689 -1.30967 2.86279
H 0.19936 -0.0164838 1.89798
6
Atoms. Timestep: 1220
O -0.274215 0.328869 0.264421
H -0.874944 1.12405 0.135691
H 0.0911144 0.0742107 -0.636263
O 0.421844 -0.320711 2.84452
H 0.240652 -1.306 2.87429
H 0.200004 -0.0217512 1.8971
6
Atoms. Timestep: 1230
O -0.280149 0.32693 0.266116
H -0.851205 1.14411 0.139533
H 0.0785206 0.0643321 -0.635047
O 0.427676 -0.319352 2.84197
H 0.23331 -1.30152 2.8856
H 0.197811 -0.0272098 1.8944
6
Atoms. Timestep: 1240
O -0.284964 0.324643 0.269647
H -0.831209 1.15893 0.145751
H 0.0678601 0.0551237 -0.63167
O 0.4326 -0.31743 2.83759
H 0.225679 -1.29636 2.89407
H 0.194392 -0.0321921 1.88985
6
Atoms. Timestep: 1250
O -0.28875 0.322017 0.274683
H -0.815729 1.169 0.152773
H 0.0579086 0.0470637 -0.627482
O 0.436648 -0.315143 2.83191
H 0.217462 -1.29068 2.89885
H 0.192918 -0.034504 1.88396
6
Atoms. Timestep: 1260
O -0.29169 0.319264 0.280417
H -0.805496 1.17454 0.160704
H 0.0482386 0.0395429 -0.622781
O 0.440067 -0.312641 2.82581
H 0.208027 -1.28479 2.89862
H 0.19418 -0.0344081 1.87735
6
Atoms. Timestep: 1270
O -0.293954 0.316601 0.285997
H -0.801199 1.17616 0.168295
H 0.0382386 0.0329138 -0.618906
O 0.443152 -0.310237 2.82007
H 0.197698 -1.27901 2.89549
H 0.197192 -0.031073 1.87155
6
Atoms. Timestep: 1280
O -0.295776 0.314368 0.290501
H -0.80313 1.17407 0.174408
H 0.0276926 0.0273471 -0.616475
O 0.44625 -0.308148 2.81555
H 0.18697 -1.2734 2.89141
H 0.200148 -0.0267445 1.86742
6
Atoms. Timestep: 1290
O -0.29748 0.312885 0.29316
H -0.811332 1.16891 0.178341
H 0.0173993 0.0225161 -0.615797
O 0.449513 -0.306613 2.81282
H 0.177287 -1.26823 2.89011
H 0.203566 -0.0227379 1.86517
6
Atoms. Timestep: 1300
O -0.299373 0.312274 0.293624
H -0.824953 1.16112 0.17858
H 0.00808489 0.0193267 -0.617062
O 0.453052 -0.305665 2.81231
H 0.169473 -1.26372 2.89273
H 0.208192 -0.0216284 1.86439
6
Atoms. Timestep: 1310
O -0.301675 0.312477 0.291797
H -0.842973 1.15126 0.176262
H 0.00152619 0.0175675 -0.619615
O 0.456886 -0.305306 2.81394
H 0.164024 -1.26004 2.89963
H 0.213905 -0.022611 1.86539
6
Atoms. Timestep: 1320
O -0.304409 0.313107 0.288205
H -0.863754 1.13976 0.170978
H -0.00147204 0.0190374 -0.623604
O 0.46104 -0.305377 2.81738
H 0.160404 -1.25716 2.90838
H 0.218772 -0.0243289 1.86846
6
Atoms. Timestep: 1330
O -0.307558 0.313791 0.283507
H -0.88586 1.12695 0.164881
H 0.000962532 0.023634 -0.627607
O 0.465344 -0.305676 2.82187
H 0.158293 -1.25491 2.91663
H 0.222222 -0.0244742 1.87359
6
Atoms. Timestep: 1340
O -0.310989 0.3141 0.278785
H -0.908098 1.11319 0.157418
H 0.00943312 0.0325792 -0.631013
O 0.469502 -0.305886 2.82655
H 0.157496 -1.25345 2.9222
H 0.225246 -0.0226918 1.87943
6
Atoms. Timestep: 1350
O -0.314522 0.313849 0.274898
H -0.929989 1.09819 0.149854
H 0.0248429 0.0452112 -0.631832
O 0.473163 -0.305724 2.83051
H 0.158375 -1.25257 2.92439
H 0.228816 -0.0197893 1.88456
6
Atoms. Timestep: 1360
O -0.317808 0.312906 0.272667
H -0.951807 1.08145 0.141846
H 0.0465324 0.0615794 -0.629405
O 0.476083 -0.304992 2.8329
H 0.161408 -1.25225 2.92409
H 0.231724 -0.0163873 1.88788
6
Atoms. Timestep: 1370
O -0.320488 0.311305 0.272519
H -0.974115 1.06172 0.133911
H 0.0733801 0.0811397 -0.622736
O 0.478172 -0.303558 2.83317
H 0.166847 -1.25212 2.92208
H 0.231131 -0.0136942 1.88922
6
Atoms. Timestep: 1380
O -0.322321 0.309118 0.274615
H -0.997683 1.03815 0.126204
H 0.104098 0.103368 -0.611679
O 0.479345 -0.301412 2.83104
H 0.175126 -1.25229 2.91987
H 0.226164 -0.0115471 1.88861
6
Atoms. Timestep: 1390
O -0.323281 0.306447 0.278814
H -1.02256 1.00982 0.117857
H 0.1369 0.128528 -0.59655
O 0.479618 -0.298529 2.82682
H 0.186048 -1.2527 2.91647
H 0.218213 -0.0113233 1.88558
6
Atoms. Timestep: 1400
O -0.323573 0.303438 0.284461
H -1.04878 0.976496 0.109365
H 0.170922 0.156164 -0.577791
O 0.479024 -0.29512 2.82114
H 0.199735 -1.25337 2.91177
H 0.210798 -0.011314 1.88055
6
Atoms. Timestep: 1410
O -0.32344 0.300171 0.290649
H -1.07562 0.938357 0.0993484
H 0.203753 0.187515 -0.557417
O 0.47794 -0.291377 2.81521
H 0.214981 -1.25451 2.90338
H 0.204658 -0.0109445 1.87451
6
Atoms. Timestep: 1420
O -0.323185 0.296887 0.295977
H -1.10294 0.89576 0.0888891
H 0.234233 0.222215 -0.536769
O 0.476759 -0.287748 2.8102
H 0.231597 -1.25602 2.89222
H 0.199585 -0.00700642 1.87048
6
Atoms. Timestep: 1430
O -0.323065 0.293852 0.299339
H -1.13009 0.849444 0.076321
H 0.25994 0.260886 -0.518547
O 0.475955 -0.284469 2.80741
H 0.249083 -1.25834 2.87855
H 0.194389 -0.000920489 1.86942
6
Atoms. Timestep: 1440
O -0.323348 0.291487 0.29984
H -1.15688 0.799638 0.0620299
H 0.280324 0.30212 -0.503469
O 0.475601 -0.281851 2.80746
H 0.269031 -1.26098 2.86651
H 0.190966 0.0062886 1.87185
6
Atoms. Timestep: 1450
O -0.324089 0.290034 0.297413
H -1.18269 0.746957 0.0450774
H 0.294403 0.344997 -0.492801
O 0.475705 -0.279839 2.81056
H 0.292098 -1.26432 2.85805
H 0.189744 0.010559 1.87597
6
Atoms. Timestep: 1460
O -0.325135 0.289489 0.292533
H -1.2066 0.69187 0.0267074
H 0.302251 0.388122 -0.486267
O 0.476058 -0.278409 2.81596
H 0.319107 -1.26767 2.85558
H 0.189794 0.0118145 1.8819
6
Atoms. Timestep: 1470
O -0.326193 0.289539 0.286193
H -1.22775 0.635632 0.00873026
H 0.304717 0.430446 -0.483212
O 0.476497 -0.277254 2.82274
H 0.348937 -1.27096 2.85684
H 0.188483 0.00989182 1.88866
6
Atoms. Timestep: 1480
O -0.326996 0.289627 0.279653
H -1.24484 0.580249 -0.00773338