ITEM: TIMESTEP
0
ITEM: NUMBER OF ATOMS
6
ITEM: BOX BOUNDS pp pp pp
-5.0000000000000000e+00 5.0000000000000000e+00
-5.0000000000000000e+00 5.0000000000000000e+00
-5.0000000000000000e+00 5.0000000000000000e+00
ITEM: ATOMS id type xs ys zs
2 2 0.5 0.5 0.4
1 1 0.5 0.5 0.5
3 2 0.6 0.5 0.5
4 1 0.5 0.5 0.8
5 2 0.5 0.5 0.9
6 2 0.6 0.5 0.8
ITEM: TIMESTEP
10
ITEM: NUMBER OF ATOMS
6
ITEM: BOX BOUNDS pp pp pp
-5.0000000000000000e+00 5.0000000000000000e+00
-5.0000000000000000e+00 5.0000000000000000e+00
-5.0000000000000000e+00 5.0000000000000000e+00
ITEM: ATOMS id type xs ys zs
2 2 0.471359 0.5 0.401404
1 1 0.501995 0.5 0.497171
6 2 0.596978 0.5 0.770155
3 2 0.596978 0.5 0.529845
4 1 0.501995 0.5 0.802829
5 2 0.471359 0.5 0.898596
ITEM: TIMESTEP
20
ITEM: NUMBER OF ATOMS
6
ITEM: BOX BOUNDS pp pp pp
-5.0000000000000000e+00 5.0000000000000000e+00
-5.0000000000000000e+00 5.0000000000000000e+00
-5.0000000000000000e+00 5.0000000000000000e+00
ITEM: ATOMS id type xs ys zs
2 2 0.491647 0.5 0.395439
1 1 0.500466 0.5 0.496552
6 2 0.600951 0.5 0.789488
3 2 0.600951 0.5 0.510512
4 1 0.500466 0.5 0.803448
5 2 0.491647 0.5 0.904561
ITEM: TIMESTEP
30
ITEM: NUMBER OF ATOMS
6
ITEM: BOX BOUNDS pp pp pp
-5.0000000000000000e+00 5.0000000000000000e+00
-5.0000000000000000e+00 5.0000000000000000e+00
-5.0000000000000000e+00 5.0000000000000000e+00
ITEM: ATOMS id type xs ys zs
2 2 0.490772 0.5 0.392463
1 1 0.500578 0.5 0.49334
6 2 0.600057 0.5 0.786278
3 2 0.600057 0.5 0.513722
4 1 0.500578 0.5 0.80666
5 2 0.490772 0.5 0.907537
ITEM: TIMESTEP
40
ITEM: NUMBER OF ATOMS
6
ITEM: BOX BOUNDS pp pp pp
-5.0000000000000000e+00 5.0000000000000000e+00
-5.0000000000000000e+00 5.0000000000000000e+00
-5.0000000000000000e+00 5.0000000000000000e+00
ITEM: ATOMS id type xs ys zs
2 2 0.48323 0.5 0.390034
1 1 0.501336 0.5 0.489007
6 2 0.595561 0.5 0.776216
3 2 0.595561 0.5 0.523784
4 1 0.501336 0.5 0.810993
5 2 0.48323 0.5 0.909966
ITEM: TIMESTEP
50
ITEM: NUMBER OF ATOMS
6
ITEM: BOX BOUNDS pp pp pp
-5.0000000000000000e+00 5.0000000000000000e+00
-5.0000000000000000e+00 5.0000000000000000e+00
-5.0000000000000000e+00 5.0000000000000000e+00
ITEM: ATOMS id type xs ys zs
2 2 0.506547 0.5 0.386681
1 1 0.499709 0.5 0.486232
6 2 0.598068 0.5 0.79659
3 2 0.598068 0.5 0.50341
4 1 0.499709 0.5 0.813768
5 2 0.506547 0.5 0.913319
ITEM: TIMESTEP
60
ITEM: NUMBER OF ATOMS
6
ITEM: BOX BOUNDS pp pp pp
-5.0000000000000000e+00 5.0000000000000000e+00
-5.0000000000000000e+00 5.0000000000000000e+00
-5.0000000000000000e+00 5.0000000000000000e+00
ITEM: ATOMS id type xs ys zs
2 2 0.48905 0.5 0.381866
1 1 0.501262 0.5 0.480725
6 2 0.590916 0.5 0.776002
3 2 0.590916 0.5 0.523998
4 1 0.501262 0.5 0.819275
5 2 0.48905 0.5 0.918134
ITEM: TIMESTEP
70
ITEM: NUMBER OF ATOMS
6
ITEM: BOX BOUNDS pp pp pp
-5.0000000000000000e+00 5.0000000000000000e+00
-5.0000000000000000e+00 5.0000000000000000e+00
-5.0000000000000000e+00 5.0000000000000000e+00
ITEM: ATOMS id type xs ys zs
2 2 0.509187 0.5 0.377954
1 1 0.499741 0.5 0.477477
6 2 0.594923 0.5 0.792227
3 2 0.594923 0.5 0.507773
4 1 0.499741 0.5 0.822523
5 2 0.509187 0.5 0.922046
ITEM: TIMESTEP
80
ITEM: NUMBER OF ATOMS
6
ITEM: BOX BOUNDS pp pp pp
-5.0000000000000000e+00 5.0000000000000000e+00
-5.0000000000000000e+00 5.0000000000000000e+00
-5.0000000000000000e+00 5.0000000000000000e+00
ITEM: ATOMS id type xs ys zs
2 2 0.506201 0.5 0.373201
1 1 0.500151 0.5 0.472978
6 2 0.5914 0.5 0.785877
3 2 0.5914 0.5 0.514123
4 1 0.500151 0.5 0.827022
5 2 0.506201 0.5 0.926799
ITEM: TIMESTEP
90
ITEM: NUMBER OF ATOMS
6
ITEM: BOX BOUNDS pp pp pp
-5.0000000000000000e+00 5.0000000000000000e+00
-5.0000000000000000e+00 5.0000000000000000e+00
-5.0000000000000000e+00 5.0000000000000000e+00
ITEM: ATOMS id type xs ys zs
2 2 0.506693 0.5 0.369285
1 1 0.500334 0.5 0.468872
6 2 0.588007 0.5 0.783726
3 2 0.588007 0.5 0.516274
4 1 0.500334 0.5 0.831128
5 2 0.506693 0.5 0.930715
ITEM: TIMESTEP
100
ITEM: NUMBER OF ATOMS
6
ITEM: BOX BOUNDS pp pp pp
-5.0000000000000000e+00 5.0000000000000000e+00
-5.0000000000000000e+00 5.0000000000000000e+00
-5.0000000000000000e+00 5.0000000000000000e+00
ITEM: ATOMS id type xs ys zs
2 2 0.520479 0.5 0.368509
1 1 0.499314 0.5 0.465588
6 2 0.590411 0.5 0.794555
3 2 0.590411 0.5 0.505445
4 1 0.499314 0.5 0.834412
5 2 0.520479 0.5 0.931491
ITEM: TIMESTEP
110
ITEM: NUMBER OF ATOMS
6
ITEM: BOX BOUNDS pp pp pp
-5.0000000000000000e+00 5.0000000000000000e+00
-5.0000000000000000e+00 5.0000000000000000e+00
-5.0000000000000000e+00 5.0000000000000000e+00
ITEM: ATOMS id type xs ys zs
2 2 0.509999 0.5 0.36265
1 1 0.500478 0.5 0.461403
6 2 0.582422 0.5 0.782779
3 2 0.582422 0.5 0.517221
4 1 0.500478 0.5 0.838597
5 2 0.509999 0.5 0.93735
ITEM: TIMESTEP
120
ITEM: NUMBER OF ATOMS
6
ITEM: BOX BOUNDS pp pp pp
-5.0000000000000000e+00 5.0000000000000000e+00
-5.0000000000000000e+00 5.0000000000000000e+00
-5.0000000000000000e+00 5.0000000000000000e+00
ITEM: ATOMS id type xs ys zs
2 2 0.524822 0.5 0.362492
1 1 0.499257 0.5 0.458548
6 2 0.586963 0.5 0.79473
3 2 0.586963 0.5 0.50527
4 1 0.499257 0.5 0.841452
5 2 0.524822 0.5 0.937508
ITEM: TIMESTEP
130
ITEM: NUMBER OF ATOMS
6
ITEM: BOX BOUNDS pp pp pp
-5.0000000000000000e+00 5.0000000000000000e+00
-5.0000000000000000e+00 5.0000000000000000e+00
-5.0000000000000000e+00 5.0000000000000000e+00
ITEM: ATOMS id type xs ys zs
2 2 0.520328 0.5 0.357639
1 1 0.499839 0.5 0.455063
6 2 0.582232 0.5 0.789006
3 2 0.582232 0.5 0.510994
4 1 0.499839 0.5 0.844937
5 2 0.520328 0.5 0.942361
ITEM: TIMESTEP
140
ITEM: NUMBER OF ATOMS
6
ITEM: BOX BOUNDS pp pp pp
-5.0000000000000000e+00 5.0000000000000000e+00
-5.0000000000000000e+00 5.0000000000000000e+00
-5.0000000000000000e+00 5.0000000000000000e+00
ITEM: ATOMS id type xs ys zs
2 2 0.523297 0.5 0.355204
1 1 0.499711 0.5 0.45207
6 2 0.581296 0.5 0.790755
3 2 0.581296 0.5 0.509245
4 1 0.499711 0.5 0.84793
5 2 0.523297 0.5 0.944796
ITEM: TIMESTEP
150
ITEM: NUMBER OF ATOMS
6
ITEM: BOX BOUNDS pp pp pp
-5.0000000000000000e+00 5.0000000000000000e+00
-5.0000000000000000e+00 5.0000000000000000e+00
-5.0000000000000000e+00 5.0000000000000000e+00
ITEM: ATOMS id type xs ys zs
2 2 0.530168 0.5 0.354674
1 1 0.499182 0.5 0.449366
6 2 0.582823 0.5 0.796458
3 2 0.582823 0.5 0.503542
4 1 0.499182 0.5 0.850634
5 2 0.530168 0.5 0.945326
ITEM: TIMESTEP
160
ITEM: NUMBER OF ATOMS
6
ITEM: BOX BOUNDS pp pp pp
-5.0000000000000000e+00 5.0000000000000000e+00
-5.0000000000000000e+00 5.0000000000000000e+00
-5.0000000000000000e+00 5.0000000000000000e+00
ITEM: ATOMS id type xs ys zs
2 2 0.523556 0.5 0.349563
1 1 0.499981 0.5 0.446351
6 2 0.576741 0.5 0.790257
3 2 0.576741 0.5 0.509743
4 1 0.499981 0.5 0.853649
5 2 0.523556 0.5 0.950437
ITEM: TIMESTEP
170
ITEM: NUMBER OF ATOMS
6
ITEM: BOX BOUNDS pp pp pp
-5.0000000000000000e+00 5.0000000000000000e+00
-5.0000000000000000e+00 5.0000000000000000e+00
-5.0000000000000000e+00 5.0000000000000000e+00
ITEM: ATOMS id type xs ys zs
2 2 0.533862 0.5 0.35056
1 1 0.499055 0.5 0.444049
6 2 0.581137 0.5 0.799301
3 2 0.581137 0.5 0.500699
4 1 0.499055 0.5 0.855951
5 2 0.533862 0.5 0.94944
ITEM: TIMESTEP
180
ITEM: NUMBER OF ATOMS
6
ITEM: BOX BOUNDS pp pp pp
-5.0000000000000000e+00 5.0000000000000000e+00
-5.0000000000000000e+00 5.0000000000000000e+00
-5.0000000000000000e+00 5.0000000000000000e+00
ITEM: ATOMS id type xs ys zs
2 2 0.528851 0.5 0.345831
1 1 0.499668 0.5 0.441381
6 2 0.576426 0.5 0.794716
3 2 0.576426 0.5 0.505284
4 1 0.499668 0.5 0.858619
5 2 0.528851 0.5 0.954169
ITEM: TIMESTEP
190
ITEM: NUMBER OF ATOMS
6
ITEM: BOX BOUNDS pp pp pp
-5.0000000000000000e+00 5.0000000000000000e+00
-5.0000000000000000e+00 5.0000000000000000e+00
-5.0000000000000000e+00 5.0000000000000000e+00
ITEM: ATOMS id type xs ys zs
2 2 0.532615 0.5 0.344721
1 1 0.499376 0.5 0.439111
6 2 0.577291 0.5 0.798178
3 2 0.577291 0.5 0.501822
4 1 0.499376 0.5 0.860889
5 2 0.532615 0.5 0.955279
ITEM: TIMESTEP
200
ITEM: NUMBER OF ATOMS
6
ITEM: BOX BOUNDS pp pp pp
-5.0000000000000000e+00 5.0000000000000000e+00
-5.0000000000000000e+00 5.0000000000000000e+00
-5.0000000000000000e+00 5.0000000000000000e+00
ITEM: ATOMS id type xs ys zs
2 2 0.535443 0.5 0.343628
1 1 0.499173 0.5 0.436916
3 2 0.577684 0.5 0.49897
6 2 0.577684 0.5 0.80103
5 2 0.535443 0.5 0.956372
4 1 0.499173 0.5 0.863084
ITEM: TIMESTEP
210
ITEM: NUMBER OF ATOMS
6
ITEM: BOX BOUNDS pp pp pp
-5.0000000000000000e+00 5.0000000000000000e+00
-5.0000000000000000e+00 5.0000000000000000e+00
-5.0000000000000000e+00 5.0000000000000000e+00
ITEM: ATOMS id type xs ys zs
2 2 0.531479 0.5 0.339761
1 1 0.499677 0.5 0.434636
6 2 0.57364 0.5 0.798056
5 2 0.531479 0.5 0.960239
4 1 0.499677 0.5 0.865364
3 2 0.57364 0.5 0.501944
ITEM: TIMESTEP
220
ITEM: NUMBER OF ATOMS
6
ITEM: BOX BOUNDS pp pp pp
-5.0000000000000000e+00 5.0000000000000000e+00
-5.0000000000000000e+00 5.0000000000000000e+00
-5.0000000000000000e+00 5.0000000000000000e+00
ITEM: ATOMS id type xs ys zs
2 2 0.538657 0.5 0.34086
1 1 0.499 0.5 0.432758
3 2 0.577213 0.5 0.495167
6 2 0.577213 0.5 0.804833
5 2 0.538657 0.5 0.95914
4 1 0.499 0.5 0.867242
ITEM: TIMESTEP
230
ITEM: NUMBER OF ATOMS
6
ITEM: BOX BOUNDS pp pp pp
-5.0000000000000000e+00 5.0000000000000000e+00
-5.0000000000000000e+00 5.0000000000000000e+00
-5.0000000000000000e+00 5.0000000000000000e+00
ITEM: ATOMS id type xs ys zs
2 2 0.534012 0.5 0.336659
1 1 0.499568 0.5 0.430655
3 2 0.572852 0.5 0.498797
6 2 0.572852 0.5 0.801203
5 2 0.534012 0.5 0.963341
4 1 0.499568 0.5 0.869345
ITEM: TIMESTEP
240
ITEM: NUMBER OF ATOMS
6
ITEM: BOX BOUNDS pp pp pp
-5.0000000000000000e+00 5.0000000000000000e+00
-5.0000000000000000e+00 5.0000000000000000e+00
-5.0000000000000000e+00 5.0000000000000000e+00
ITEM: ATOMS id type xs ys zs
2 2 0.538061 0.5 0.336545
1 1 0.499208 0.5 0.428864
3 2 0.574517 0.5 0.494842
6 2 0.574517 0.5 0.805158
5 2 0.538061 0.5 0.963455
4 1 0.499208 0.5 0.871136
ITEM: TIMESTEP
250
ITEM: NUMBER OF ATOMS
6
ITEM: BOX BOUNDS pp pp pp
-5.0000000000000000e+00 5.0000000000000000e+00
-5.0000000000000000e+00 5.0000000000000000e+00
-5.0000000000000000e+00 5.0000000000000000e+00
ITEM: ATOMS id type xs ys zs
2 2 0.538698 0.5 0.335051
1 1 0.499212 0.5 0.427064
3 2 0.573816 0.5 0.493816
6 2 0.573816 0.5 0.806184
5 2 0.538698 0.5 0.964949
4 1 0.499212 0.5 0.872936
ITEM: TIMESTEP
260
ITEM: NUMBER OF ATOMS
6
ITEM: BOX BOUNDS pp pp pp
-5.0000000000000000e+00 5.0000000000000000e+00
-5.0000000000000000e+00 5.0000000000000000e+00
-5.0000000000000000e+00 5.0000000000000000e+00
ITEM: ATOMS id type xs ys zs
2 2 0.536819 0.5 0.332459
1 1 0.499491 0.5 0.425283
3 2 0.571267 0.5 0.494925
6 2 0.571267 0.5 0.805075
5 2 0.536819 0.5 0.967541
4 1 0.499491 0.5 0.874717
ITEM: TIMESTEP
270
ITEM: NUMBER OF ATOMS
6
ITEM: BOX BOUNDS pp pp pp
-5.0000000000000000e+00 5.0000000000000000e+00
-5.0000000000000000e+00 5.0000000000000000e+00
-5.0000000000000000e+00 5.0000000000000000e+00
ITEM: ATOMS id type xs ys zs
2 2 0.541856 0.5 0.333384
1 1 0.499017 0.5 0.423732
3 2 0.573741 0.5 0.490145
6 2 0.573741 0.5 0.809855
5 2 0.541856 0.5 0.966616
4 1 0.499017 0.5 0.876268
ITEM: TIMESTEP
280
ITEM: NUMBER OF ATOMS
6
ITEM: BOX BOUNDS pp pp pp
-5.0000000000000000e+00 5.0000000000000000e+00
-5.0000000000000000e+00 5.0000000000000000e+00
-5.0000000000000000e+00 5.0000000000000000e+00
ITEM: ATOMS id type xs ys zs
2 2 0.53814 0.5 0.329904
1 1 0.499499 0.5 0.422055
3 2 0.569818 0.5 0.493015
6 2 0.569818 0.5 0.806985
5 2 0.53814 0.5 0.970096
4 1 0.499499 0.5 0.877945
ITEM: TIMESTEP
290
ITEM: NUMBER OF ATOMS
6
ITEM: BOX BOUNDS pp pp pp
-5.0000000000000000e+00 5.0000000000000000e+00
-5.0000000000000000e+00 5.0000000000000000e+00
-5.0000000000000000e+00 5.0000000000000000e+00
ITEM: ATOMS id type xs ys zs
2 2 0.542195 0.5 0.330449
1 1 0.499128 0.5 0.420613
3 2 0.571643 0.5 0.489327
6 2 0.571643 0.5 0.810673
5 2 0.542195 0.5 0.969551
4 1 0.499128 0.5 0.879387
ITEM: TIMESTEP
300
ITEM: NUMBER OF ATOMS
6
ITEM: BOX BOUNDS pp pp pp
-5.0000000000000000e+00 5.0000000000000000e+00
-5.0000000000000000e+00 5.0000000000000000e+00
-5.0000000000000000e+00 5.0000000000000000e+00
ITEM: ATOMS id type xs ys zs
2 2 0.541809 0.5 0.328784
1 1 0.499248 0.5 0.419139
3 2 0.570122 0.5 0.489503
6 2 0.570122 0.5 0.810497
5 2 0.541809 0.5 0.971216
4 1 0.499248 0.5 0.880861
ITEM: TIMESTEP
310
ITEM: NUMBER OF ATOMS
6
ITEM: BOX BOUNDS pp pp pp
-5.0000000000000000e+00 5.0000000000000000e+00
-5.0000000000000000e+00 5.0000000000000000e+00
-5.0000000000000000e+00 5.0000000000000000e+00
ITEM: ATOMS id type xs ys zs
2 2 0.541514 0.5 0.327242
1 1 0.499363 0.5 0.417731
3 2 0.568592 0.5 0.489623
6 2 0.568592 0.5 0.810377
5 2 0.541514 0.5 0.972758
4 1 0.499363 0.5 0.882269
ITEM: TIMESTEP
320
ITEM: NUMBER OF ATOMS
6
ITEM: BOX BOUNDS pp pp pp
-5.0000000000000000e+00 5.0000000000000000e+00
-5.0000000000000000e+00 5.0000000000000000e+00
-5.0000000000000000e+00 5.0000000000000000e+00
ITEM: ATOMS id type xs ys zs
2 2 0.545087 0.5 0.327928
1 1 0.499046 0.5 0.416452
3 2 0.570058 0.5 0.486547
6 2 0.570058 0.5 0.813453
5 2 0.545087 0.5 0.972072
4 1 0.499046 0.5 0.883548
ITEM: TIMESTEP
330
ITEM: NUMBER OF ATOMS
6
ITEM: BOX BOUNDS pp pp pp
-5.0000000000000000e+00 5.0000000000000000e+00
-5.0000000000000000e+00 5.0000000000000000e+00
-5.0000000000000000e+00 5.0000000000000000e+00
ITEM: ATOMS id type xs ys zs
2 2 0.542451 0.5 0.325136
1 1 0.499429 0.5 0.415121
3 2 0.566615 0.5 0.488828
6 2 0.566615 0.5 0.811172
5 2 0.542451 0.5 0.974864
4 1 0.499429 0.5 0.884879
ITEM: TIMESTEP
340
ITEM: NUMBER OF ATOMS
6
ITEM: BOX BOUNDS pp pp pp
-5.0000000000000000e+00 5.0000000000000000e+00
-5.0000000000000000e+00 5.0000000000000000e+00
-5.0000000000000000e+00 5.0000000000000000e+00
ITEM: ATOMS id type xs ys zs
2 2 0.546311 0.5 0.32608
1 1 0.499077 0.5 0.413955
3 2 0.568338 0.5 0.485753
6 2 0.568338 0.5 0.814247
5 2 0.546311 0.5 0.97392
4 1 0.499077 0.5 0.886045
ITEM: TIMESTEP
350
ITEM: NUMBER OF ATOMS
6
ITEM: BOX BOUNDS pp pp pp
-5.0000000000000000e+00 5.0000000000000000e+00
-5.0000000000000000e+00 5.0000000000000000e+00
-5.0000000000000000e+00 5.0000000000000000e+00
ITEM: ATOMS id type xs ys zs
2 2 0.545515 0.5 0.324369
1 1 0.499256 0.5 0.412766
3 2 0.566292 0.5 0.486666
6 2 0.566292 0.5 0.813334
5 2 0.545515 0.5 0.975631
4 1 0.499256 0.5 0.887234
ITEM: TIMESTEP
360
ITEM: NUMBER OF ATOMS
6
ITEM: BOX BOUNDS pp pp pp
-5.0000000000000000e+00 5.0000000000000000e+00
-5.0000000000000000e+00 5.0000000000000000e+00
-5.0000000000000000e+00 5.0000000000000000e+00
ITEM: ATOMS id type xs ys zs
2 2 0.546302 0.5 0.323654
1 1 0.499257 0.5 0.411656
3 2 0.565495 0.5 0.486282
6 2 0.565495 0.5 0.813718
5 2 0.546302 0.5 0.976346
4 1 0.499257 0.5 0.888344
ITEM: TIMESTEP
370
ITEM: NUMBER OF ATOMS
6
ITEM: BOX BOUNDS pp pp pp
-5.0000000000000000e+00 5.0000000000000000e+00
-5.0000000000000000e+00 5.0000000000000000e+00
-5.0000000000000000e+00 5.0000000000000000e+00
ITEM: ATOMS id type xs ys zs
2 2 0.548798 0.5 0.324096
1 1 0.499059 0.5 0.410617
3 2 0.56614 0.5 0.484519
6 2 0.56614 0.5 0.815481
5 2 0.548798 0.5 0.975904
4 1 0.499059 0.5 0.889383
ITEM: TIMESTEP
380
ITEM: NUMBER OF ATOMS
6
ITEM: BOX BOUNDS pp pp pp
-5.0000000000000000e+00 5.0000000000000000e+00
-5.0000000000000000e+00 5.0000000000000000e+00
-5.0000000000000000e+00 5.0000000000000000e+00
ITEM: ATOMS id type xs ys zs
2 2 0.547099 0.5 0.321934
1 1 0.49935 0.5 0.409576
3 2 0.56321 0.5 0.486277
6 2 0.56321 0.5 0.813723
5 2 0.547099 0.5 0.978066
4 1 0.49935 0.5 0.890424
ITEM: TIMESTEP
390
ITEM: NUMBER OF ATOMS
6
ITEM: BOX BOUNDS pp pp pp
-5.0000000000000000e+00 5.0000000000000000e+00
-5.0000000000000000e+00 5.0000000000000000e+00
-5.0000000000000000e+00 5.0000000000000000e+00
ITEM: ATOMS id type xs ys zs
2 2 0.550567 0.5 0.323112
1 1 0.499035 0.5 0.408642
3 2 0.564745 0.5 0.483834
6 2 0.564745 0.5 0.816166
5 2 0.550567 0.5 0.976888
4 1 0.499035 0.5 0.891358
ITEM: TIMESTEP
400
ITEM: NUMBER OF ATOMS
6
ITEM: BOX BOUNDS pp pp pp
-5.0000000000000000e+00 5.0000000000000000e+00
-5.0000000000000000e+00 5.0000000000000000e+00
-5.0000000000000000e+00 5.0000000000000000e+00
ITEM: ATOMS id type xs ys zs
2 2 0.549582 0.5 0.321437
1 1 0.499244 0.5 0.407707
3 2 0.562416 0.5 0.485087
6 2 0.562416 0.5 0.814913
5 2 0.549582 0.5 0.978563
4 1 0.499244 0.5 0.892293
ITEM: TIMESTEP
410
ITEM: NUMBER OF ATOMS
6
ITEM: BOX BOUNDS pp pp pp
-5.0000000000000000e+00 5.0000000000000000e+00
-5.0000000000000000e+00 5.0000000000000000e+00
-5.0000000000000000e+00 5.0000000000000000e+00
ITEM: ATOMS id type xs ys zs
2 2 0.550978 0.5 0.321398
1 1 0.49917 0.5 0.406842
3 2 0.562199 0.5 0.484382
6 2 0.562199 0.5 0.815618
5 2 0.550978 0.5 0.978602
4 1 0.49917 0.5 0.893158
ITEM: TIMESTEP
420
ITEM: NUMBER OF ATOMS
6
ITEM: BOX BOUNDS pp pp pp
-5.0000000000000000e+00 5.0000000000000000e+00
-5.0000000000000000e+00 5.0000000000000000e+00
-5.0000000000000000e+00 5.0000000000000000e+00
ITEM: ATOMS id type xs ys zs
2 2 0.552553 0.5 0.321592
1 1 0.499071 0.5 0.406021
3 2 0.562199 0.5 0.483517
6 2 0.562199 0.5 0.816483
5 2 0.552553 0.5 0.978408
4 1 0.499071 0.5 0.893979
ITEM: TIMESTEP
430
ITEM: NUMBER OF ATOMS
6
ITEM: BOX BOUNDS pp pp pp
-5.0000000000000000e+00 5.0000000000000000e+00
-5.0000000000000000e+00 5.0000000000000000e+00
-5.0000000000000000e+00 5.0000000000000000e+00
ITEM: ATOMS id type xs ys zs
2 2 0.551536 0.5 0.320028
1 1 0.499282 0.5 0.405226
3 2 0.559855 0.5 0.48473
6 2 0.559855 0.5 0.81527
5 2 0.551536 0.5 0.979972
4 1 0.499282 0.5 0.894774
ITEM: TIMESTEP
440
ITEM: NUMBER OF ATOMS
6
ITEM: BOX BOUNDS pp pp pp
-5.0000000000000000e+00 5.0000000000000000e+00
-5.0000000000000000e+00 5.0000000000000000e+00
-5.0000000000000000e+00 5.0000000000000000e+00
ITEM: ATOMS id type xs ys zs
2 2 0.554412 0.5 0.321277
1 1 0.499018 0.5 0.404497
3 2 0.561177 0.5 0.482799
6 2 0.561177 0.5 0.817201
5 2 0.554412 0.5 0.978723
4 1 0.499018 0.5 0.895503
ITEM: TIMESTEP
450
ITEM: NUMBER OF ATOMS
6
ITEM: BOX BOUNDS pp pp pp
-5.0000000000000000e+00 5.0000000000000000e+00
-5.0000000000000000e+00 5.0000000000000000e+00
-5.0000000000000000e+00 5.0000000000000000e+00
ITEM: ATOMS id type xs ys zs
2 2 0.553293 0.5 0.319694
1 1 0.499237 0.5 0.403788
3 2 0.558818 0.5 0.48407
6 2 0.558818 0.5 0.81593
5 2 0.553293 0.5 0.980306
4 1 0.499237 0.5 0.896212
ITEM: TIMESTEP
460
ITEM: NUMBER OF ATOMS
6
ITEM: BOX BOUNDS pp pp pp
-5.0000000000000000e+00 5.0000000000000000e+00
-5.0000000000000000e+00 5.0000000000000000e+00
-5.0000000000000000e+00 5.0000000000000000e+00
ITEM: ATOMS id type xs ys zs
2 2 0.554896 0.5 0.320154
1 1 0.499118 0.5 0.403132
3 2 0.559101 0.5 0.483124
6 2 0.559101 0.5 0.816876
5 2 0.554896 0.5 0.979846
4 1 0.499118 0.5 0.896868
ITEM: TIMESTEP
470
ITEM: NUMBER OF ATOMS
6
ITEM: BOX BOUNDS pp pp pp
-5.0000000000000000e+00 5.0000000000000000e+00
-5.0000000000000000e+00 5.0000000000000000e+00
-5.0000000000000000e+00 5.0000000000000000e+00
ITEM: ATOMS id type xs ys zs
2 2 0.555646 0.5 0.320068
1 1 0.499099 0.5 0.40251
3 2 0.558655 0.5 0.482814
6 2 0.558655 0.5 0.817186
5 2 0.555646 0.5 0.979932
4 1 0.499099 0.5 0.89749
ITEM: TIMESTEP
480
ITEM: NUMBER OF ATOMS
6
ITEM: BOX BOUNDS pp pp pp
-5.0000000000000000e+00 5.0000000000000000e+00
-5.0000000000000000e+00 5.0000000000000000e+00
-5.0000000000000000e+00 5.0000000000000000e+00
ITEM: ATOMS id type xs ys zs
2 2 0.555073 0.5 0.31903
1 1 0.49924 0.5 0.401926
3 2 0.556991 0.5 0.483499
6 2 0.556991 0.5 0.816501
5 2 0.555073 0.5 0.98097
4 1 0.49924 0.5 0.898074
ITEM: TIMESTEP
490
ITEM: NUMBER OF ATOMS
6
ITEM: BOX BOUNDS pp pp pp
-5.0000000000000000e+00 5.0000000000000000e+00
-5.0000000000000000e+00 5.0000000000000000e+00
-5.0000000000000000e+00 5.0000000000000000e+00
ITEM: ATOMS id type xs ys zs
2 2 0.557248 0.5 0.320156
1 1 0.499032 0.5 0.401382
3 2 0.558121 0.5 0.481979
6 2 0.558121 0.5 0.818021
5 2 0.557248 0.5 0.979844
4 1 0.499032 0.5 0.898618
ITEM: TIMESTEP
500
ITEM: NUMBER OF ATOMS
6
ITEM: BOX BOUNDS pp pp pp
-5.0000000000000000e+00 5.0000000000000000e+00
-5.0000000000000000e+00 5.0000000000000000e+00
-5.0000000000000000e+00 5.0000000000000000e+00
ITEM: ATOMS id type xs ys zs
2 2 0.556041 0.5 0.318685
1 1 0.499242 0.5 0.400872
3 2 0.555988 0.5 0.483101
6 2 0.555988 0.5 0.816899
5 2 0.556041 0.5 0.981315
4 1 0.499242 0.5 0.899128
ITEM: TIMESTEP
510
ITEM: NUMBER OF ATOMS
6
ITEM: BOX BOUNDS pp pp pp
-5.0000000000000000e+00 5.0000000000000000e+00
-5.0000000000000000e+00 5.0000000000000000e+00
-5.0000000000000000e+00 5.0000000000000000e+00
ITEM: ATOMS id type xs ys zs
2 2 0.557593 0.5 0.319417
1 1 0.499099 0.5 0.400399
3 2 0.556703 0.5 0.482016
6 2 0.556703 0.5 0.817984
5 2 0.557593 0.5 0.980583
4 1 0.499099 0.5 0.899601
ITEM: TIMESTEP
520
ITEM: NUMBER OF ATOMS
6
ITEM: BOX BOUNDS pp pp pp
-5.0000000000000000e+00 5.0000000000000000e+00
-5.0000000000000000e+00 5.0000000000000000e+00
-5.0000000000000000e+00 5.0000000000000000e+00
ITEM: ATOMS id type xs ys zs
2 2 0.557663 0.5 0.319028
1 1 0.499138 0.5 0.399961
3 2 0.556026 0.5 0.482055
6 2 0.556026 0.5 0.817945
5 2 0.557663 0.5 0.980972
4 1 0.499138 0.5 0.900039
ITEM: TIMESTEP
530
ITEM: NUMBER OF ATOMS
6
ITEM: BOX BOUNDS pp pp pp
-5.0000000000000000e+00 5.0000000000000000e+00
-5.0000000000000000e+00 5.0000000000000000e+00
-5.0000000000000000e+00 5.0000000000000000e+00
ITEM: ATOMS id type xs ys zs
2 2 0.557387 0.5 0.31839
1 1 0.499215 0.5 0.399547
3 2 0.555073 0.5 0.482312
6 2 0.555073 0.5 0.817688
5 2 0.557387 0.5 0.98161
4 1 0.499215 0.5 0.900453
ITEM: TIMESTEP
540
ITEM: NUMBER OF ATOMS
6
ITEM: BOX BOUNDS pp pp pp
-5.0000000000000000e+00 5.0000000000000000e+00
-5.0000000000000000e+00 5.0000000000000000e+00
-5.0000000000000000e+00 5.0000000000000000e+00
ITEM: ATOMS id type xs ys zs
2 2 0.5589 0.5 0.319223
1 1 0.499059 0.5 0.399144
3 2 0.55603 0.5 0.481136
6 2 0.55603 0.5 0.818864
5 2 0.5589 0.5 0.980777
4 1 0.499059 0.5 0.900856
ITEM: TIMESTEP
550
ITEM: NUMBER OF ATOMS
6
ITEM: BOX BOUNDS pp pp pp
-5.0000000000000000e+00 5.0000000000000000e+00
-5.0000000000000000e+00 5.0000000000000000e+00
-5.0000000000000000e+00 5.0000000000000000e+00
ITEM: ATOMS id type xs ys zs
2 2 0.5577 0.5 0.317846
1 1 0.499246 0.5 0.398762
3 2 0.554269 0.5 0.48205
6 2 0.554269 0.5 0.81795
5 2 0.5577 0.5 0.982154
4 1 0.499246 0.5 0.901238
ITEM: TIMESTEP
560
ITEM: NUMBER OF ATOMS
6
ITEM: BOX BOUNDS pp pp pp
-5.0000000000000000e+00 5.0000000000000000e+00
-5.0000000000000000e+00 5.0000000000000000e+00
-5.0000000000000000e+00 5.0000000000000000e+00
ITEM: ATOMS id type xs ys zs
2 2 0.559121 0.5 0.318623
1 1 0.499093 0.5 0.398389
3 2 0.555282 0.5 0.480903
6 2 0.555282 0.5 0.819097
5 2 0.559121 0.5 0.981377
4 1 0.499093 0.5 0.901611
ITEM: TIMESTEP
570
ITEM: NUMBER OF ATOMS
6
ITEM: BOX BOUNDS pp pp pp
-5.0000000000000000e+00 5.0000000000000000e+00
-5.0000000000000000e+00 5.0000000000000000e+00
-5.0000000000000000e+00 5.0000000000000000e+00
ITEM: ATOMS id type xs ys zs
2 2 0.558727 0.5 0.317921
1 1 0.499168 0.5 0.398036
3 2 0.554484 0.5 0.481139
6 2 0.554484 0.5 0.818861
5 2 0.558727 0.5 0.982079
4 1 0.499168 0.5 0.901964
ITEM: TIMESTEP
580
ITEM: NUMBER OF ATOMS
6
ITEM: BOX BOUNDS pp pp pp
-5.0000000000000000e+00 5.0000000000000000e+00
-5.0000000000000000e+00 5.0000000000000000e+00
-5.0000000000000000e+00 5.0000000000000000e+00
ITEM: ATOMS id type xs ys zs
2 2 0.558712 0.5 0.31755
1 1 0.499191 0.5 0.397699
3 2 0.554136 0.5 0.48105
6 2 0.554136 0.5 0.81895
5 2 0.558712 0.5 0.98245
4 1 0.499191 0.5 0.902301
ITEM: TIMESTEP
590
ITEM: NUMBER OF ATOMS
6
ITEM: BOX BOUNDS pp pp pp
-5.0000000000000000e+00 5.0000000000000000e+00
-5.0000000000000000e+00 5.0000000000000000e+00
-5.0000000000000000e+00 5.0000000000000000e+00
ITEM: ATOMS id type xs ys zs
2 2 0.559687 0.5 0.318027
1 1 0.499082 0.5 0.397374
3 2 0.554881 0.5 0.480171
6 2 0.554881 0.5 0.819829
5 2 0.559687 0.5 0.981973
4 1 0.499082 0.5 0.902626
ITEM: TIMESTEP
600
ITEM: NUMBER OF ATOMS
6
ITEM: BOX BOUNDS pp pp pp
-5.0000000000000000e+00 5.0000000000000000e+00
-5.0000000000000000e+00 5.0000000000000000e+00
-5.0000000000000000e+00 5.0000000000000000e+00
ITEM: ATOMS id type xs ys zs
2 2 0.558595 0.5 0.316785
1 1 0.499237 0.5 0.397073
3 2 0.553511 0.5 0.480883
6 2 0.553511 0.5 0.819118
5 2 0.558595 0.5 0.983215
4 1 0.499237 0.5 0.902927
ITEM: TIMESTEP
610
ITEM: NUMBER OF ATOMS
6
ITEM: BOX BOUNDS pp pp pp
-5.0000000000000000e+00 5.0000000000000000e+00
-5.0000000000000000e+00 5.0000000000000000e+00
-5.0000000000000000e+00 5.0000000000000000e+00
ITEM: ATOMS id type xs ys zs
2 2 0.559865 0.5 0.317532
1 1 0.499085 0.5 0.39678
3 2 0.55466 0.5 0.479762
6 2 0.55466 0.5 0.820238
5 2 0.559865 0.5 0.982468
4 1 0.499085 0.5 0.90322
ITEM: TIMESTEP
620
ITEM: NUMBER OF ATOMS
6
ITEM: BOX BOUNDS pp pp pp
-5.0000000000000000e+00 5.0000000000000000e+00
-5.0000000000000000e+00 5.0000000000000000e+00
-5.0000000000000000e+00 5.0000000000000000e+00
ITEM: ATOMS id type xs ys zs
2 2 0.559175 0.5 0.316649
1 1 0.499183 0.5 0.396512
3 2 0.553788 0.5 0.480152
6 2 0.553788 0.5 0.819848
5 2 0.559175 0.5 0.983351
4 1 0.499183 0.5 0.903488
ITEM: TIMESTEP
630
ITEM: NUMBER OF ATOMS
6
ITEM: BOX BOUNDS pp pp pp
-5.0000000000000000e+00 5.0000000000000000e+00
-5.0000000000000000e+00 5.0000000000000000e+00
-5.0000000000000000e+00 5.0000000000000000e+00
ITEM: ATOMS id type xs ys zs
2 2 0.559388 0.5 0.316548
1 1 0.499163 0.5 0.396257
3 2 0.553893 0.5 0.479835
6 2 0.553893 0.5 0.820165
5 2 0.559388 0.5 0.983452
4 1 0.499163 0.5 0.903743
ITEM: TIMESTEP
640
ITEM: NUMBER OF ATOMS
6
ITEM: BOX BOUNDS pp pp pp
-5.0000000000000000e+00 5.0000000000000000e+00
-5.0000000000000000e+00 5.0000000000000000e+00
-5.0000000000000000e+00 5.0000000000000000e+00
ITEM: ATOMS id type xs ys zs
2 2 0.55993 0.5 0.316753
1 1 0.499099 0.5 0.396018
3 2 0.55437 0.5 0.479257
6 2 0.55437 0.5 0.820743
5 2 0.55993 0.5 0.983247
4 1 0.499099 0.5 0.903982
ITEM: TIMESTEP
650
ITEM: NUMBER OF ATOMS
6
ITEM: BOX BOUNDS pp pp pp
-5.0000000000000000e+00 5.0000000000000000e+00
-5.0000000000000000e+00 5.0000000000000000e+00
-5.0000000000000000e+00 5.0000000000000000e+00
ITEM: ATOMS id type xs ys zs
2 2 0.559025 0.5 0.315757
1 1 0.499221 0.5 0.395802
3 2 0.553338 0.5 0.479799
6 2 0.553338 0.5 0.820201
5 2 0.559025 0.5 0.984243
4 1 0.499221 0.5 0.904198
ITEM: TIMESTEP
660
ITEM: NUMBER OF ATOMS
6
ITEM: BOX BOUNDS pp pp pp
-5.0000000000000000e+00 5.0000000000000000e+00
-5.0000000000000000e+00 5.0000000000000000e+00
-5.0000000000000000e+00 5.0000000000000000e+00
ITEM: ATOMS id type xs ys zs
2 2 0.560142 0.5 0.316485
1 1 0.499081 0.5 0.395595
3 2 0.554449 0.5 0.47879
6 2 0.554449 0.5 0.82121
5 2 0.560141 0.5 0.983515
4 1 0.499081 0.5 0.904405
ITEM: TIMESTEP
670
ITEM: NUMBER OF ATOMS
6
ITEM: BOX BOUNDS pp pp pp
-5.0000000000000000e+00 5.0000000000000000e+00
-5.0000000000000000e+00 5.0000000000000000e+00
-5.0000000000000000e+00 5.0000000000000000e+00
ITEM: ATOMS id type xs ys zs
2 2 0.559307 0.5 0.315583
1 1 0.499193 0.5 0.395414
3 2 0.553506 0.5 0.479301
6 2 0.553506 0.5 0.820699
5 2 0.559306 0.5 0.984417
4 1 0.499193 0.5 0.904586
ITEM: TIMESTEP
680
ITEM: NUMBER OF ATOMS
6
ITEM: BOX BOUNDS pp pp pp
-5.0000000000000000e+00 5.0000000000000000e+00
-5.0000000000000000e+00 5.0000000000000000e+00
-5.0000000000000000e+00 5.0000000000000000e+00
ITEM: ATOMS id type xs ys zs
2 2 0.559729 0.5 0.315767
1 1 0.499142 0.5 0.395244
3 2 0.553891 0.5 0.478852
6 2 0.553891 0.5 0.821148
5 2 0.559728 0.5 0.984233
4 1 0.499142 0.5 0.904756
ITEM: TIMESTEP
690
ITEM: NUMBER OF ATOMS
6
ITEM: BOX BOUNDS pp pp pp
-5.0000000000000000e+00 5.0000000000000000e+00
-5.0000000000000000e+00 5.0000000000000000e+00
-5.0000000000000000e+00 5.0000000000000000e+00
ITEM: ATOMS id type xs ys zs
2 2 0.559942 0.5 0.315801
1 1 0.499118 0.5 0.395093
3 2 0.554053 0.5 0.478575
6 2 0.554053 0.5 0.821426
5 2 0.559941 0.5 0.9842
4 1 0.499118 0.5 0.904907
ITEM: TIMESTEP
700
ITEM: NUMBER OF ATOMS
6
ITEM: BOX BOUNDS pp pp pp
-5.0000000000000000e+00 5.0000000000000000e+00
-5.0000000000000000e+00 5.0000000000000000e+00
-5.0000000000000000e+00 5.0000000000000000e+00
ITEM: ATOMS id type xs ys zs
2 2 0.55929 0.5 0.315125
1 1 0.499207 0.5 0.394962
3 2 0.553295 0.5 0.478979
6 2 0.553296 0.5 0.821022
5 2 0.559289 0.5 0.984875
4 1 0.499207 0.5 0.905038
ITEM: TIMESTEP
710
ITEM: NUMBER OF ATOMS
6
ITEM: BOX BOUNDS pp pp pp
-5.0000000000000000e+00 5.0000000000000000e+00
-5.0000000000000000e+00 5.0000000000000000e+00
-5.0000000000000000e+00 5.0000000000000000e+00
ITEM: ATOMS id type xs ys zs
2 2 0.560256 0.5 0.315838
1 1 0.499087 0.5 0.39484
3 2 0.554239 0.5 0.478156
6 2 0.554241 0.5 0.821845
5 2 0.560255 0.5 0.984163
4 1 0.499087 0.5 0.90516
ITEM: TIMESTEP
720
ITEM: NUMBER OF ATOMS
6
ITEM: BOX BOUNDS pp pp pp
-5.0000000000000000e+00 5.0000000000000000e+00
-5.0000000000000000e+00 5.0000000000000000e+00
-5.0000000000000000e+00 5.0000000000000000e+00
ITEM: ATOMS id type xs ys zs
2 2 0.559407 0.5 0.315025
1 1 0.499202 0.5 0.394744
3 2 0.553253 0.5 0.47876
6 2 0.553255 0.5 0.821242
5 2 0.559405 0.5 0.984976
4 1 0.499202 0.5 0.905256
ITEM: TIMESTEP
730
ITEM: NUMBER OF ATOMS
6
ITEM: BOX BOUNDS pp pp pp
-5.0000000000000000e+00 5.0000000000000000e+00
-5.0000000000000000e+00 5.0000000000000000e+00
-5.0000000000000000e+00 5.0000000000000000e+00
ITEM: ATOMS id type xs ys zs
2 2 0.560007 0.5 0.315458
1 1 0.499131 0.5 0.394656
3 2 0.55379 0.5 0.478269
6 2 0.553793 0.5 0.821733
5 2 0.560005 0.5 0.984544
4 1 0.499131 0.5 0.905344
ITEM: TIMESTEP
740
ITEM: NUMBER OF ATOMS
6
ITEM: BOX BOUNDS pp pp pp
-5.0000000000000000e+00 5.0000000000000000e+00
-5.0000000000000000e+00 5.0000000000000000e+00
-5.0000000000000000e+00 5.0000000000000000e+00
ITEM: ATOMS id type xs ys zs
2 2 0.559984 0.5 0.315378
1 1 0.499141 0.5 0.394587
3 2 0.553656 0.5 0.47828
6 2 0.55366 0.5 0.821723
5 2 0.55998 0.5 0.984624
4 1 0.499141 0.5 0.905412
ITEM: TIMESTEP
750
ITEM: NUMBER OF ATOMS
6
ITEM: BOX BOUNDS pp pp pp
-5.0000000000000000e+00 5.0000000000000000e+00
-5.0000000000000000e+00 5.0000000000000000e+00
-5.0000000000000000e+00 5.0000000000000000e+00
ITEM: ATOMS id type xs ys zs
2 2 0.559612 0.5 0.315019
1 1 0.499196 0.5 0.394536
3 2 0.553143 0.5 0.478578
6 2 0.553148 0.5 0.821425
5 2 0.559607 0.5 0.984985
4 1 0.499196 0.5 0.905464
ITEM: TIMESTEP
760
ITEM: NUMBER OF ATOMS
6
ITEM: BOX BOUNDS pp pp pp
-5.0000000000000000e+00 5.0000000000000000e+00