ITEM: TIMESTEP
0
ITEM: NUMBER OF ATOMS
6
ITEM: BOX BOUNDS pp pp pp
-5.0000000000000000e+00 5.0000000000000000e+00
-5.0000000000000000e+00 5.0000000000000000e+00
-5.0000000000000000e+00 5.0000000000000000e+00
ITEM: ATOMS id type xs ys zs
1 1 0.5 0.5 0.5
2 2 0.5 0.5 0.4
3 2 0.6 0.5 0.5
4 1 0.5 0.5 0.8
5 2 0.5 0.5 0.9
6 2 0.6 0.5 0.8
ITEM: TIMESTEP
100
ITEM: NUMBER OF ATOMS
6
ITEM: BOX BOUNDS pp pp pp
-5.0000000000000000e+00 5.0000000000000000e+00
-5.0000000000000000e+00 5.0000000000000000e+00
-5.0000000000000000e+00 5.0000000000000000e+00
ITEM: ATOMS id type xs ys zs
1 1 0.498606 0.5 0.457559
2 2 0.531461 0.5 0.361299
3 2 0.590671 0.5 0.500658
4 1 0.498606 0.5 0.842441
5 2 0.531461 0.5 0.938701
6 2 0.590671 0.5 0.799342
ITEM: TIMESTEP
200
ITEM: NUMBER OF ATOMS
6
ITEM: BOX BOUNDS pp pp pp
-5.0000000000000000e+00 5.0000000000000000e+00
-5.0000000000000000e+00 5.0000000000000000e+00
-5.0000000000000000e+00 5.0000000000000000e+00
ITEM: ATOMS id type xs ys zs
1 1 0.499269 0.5 0.411728
2 2 0.549465 0.5 0.326116
3 2 0.562144 0.5 0.488768
4 1 0.499269 0.5 0.888272
5 2 0.549465 0.5 0.973884
6 2 0.562144 0.5 0.811232
ITEM: TIMESTEP
300
ITEM: NUMBER OF ATOMS
6
ITEM: BOX BOUNDS pp pp pp
-5.0000000000000000e+00 5.0000000000000000e+00
-5.0000000000000000e+00 5.0000000000000000e+00
-5.0000000000000000e+00 5.0000000000000000e+00
ITEM: ATOMS id type xs ys zs
1 1 0.498911 0.5 0.386785
2 2 0.564309 0.5 0.311207
3 2 0.552975 0.5 0.470789
4 1 0.498911 0.5 0.913215
5 2 0.564309 0.5 0.988793
6 2 0.552975 0.5 0.829211
ITEM: TIMESTEP
400
ITEM: NUMBER OF ATOMS
6
ITEM: BOX BOUNDS pp pp pp
-5.0000000000000000e+00 5.0000000000000000e+00
-5.0000000000000000e+00 5.0000000000000000e+00
-5.0000000000000000e+00 5.0000000000000000e+00
ITEM: ATOMS id type xs ys zs
1 1 0.499369 0.5 0.377662
2 2 0.570179 0.5 0.306882
3 2 0.539838 0.5 0.469174
4 1 0.499369 0.5 0.922338
5 2 0.570179 0.5 0.993118
6 2 0.539838 0.5 0.830826
ITEM: TIMESTEP
500
ITEM: NUMBER OF ATOMS
6
ITEM: BOX BOUNDS pp pp pp
-5.0000000000000000e+00 5.0000000000000000e+00
-5.0000000000000000e+00 5.0000000000000000e+00
-5.0000000000000000e+00 5.0000000000000000e+00
ITEM: ATOMS id type xs ys zs
1 1 0.49915 0.5 0.379117
2 2 0.572464 0.5 0.311632
3 2 0.541033 0.5 0.469571
4 1 0.49915 0.5 0.920883
5 2 0.572464 0.5 0.988368
6 2 0.541033 0.5 0.830429
ITEM: TIMESTEP
600
ITEM: NUMBER OF ATOMS
6
ITEM: BOX BOUNDS pp pp pp
-5.0000000000000000e+00 5.0000000000000000e+00
-5.0000000000000000e+00 5.0000000000000000e+00
-5.0000000000000000e+00 5.0000000000000000e+00
ITEM: ATOMS id type xs ys zs
1 1 0.499153 0.5 0.38649
2 2 0.56557 0.5 0.311512
3 2 0.547872 0.5 0.474013
4 1 0.499153 0.5 0.91351
5 2 0.56557 0.5 0.988488
6 2 0.547872 0.5 0.825987
ITEM: TIMESTEP
700
ITEM: NUMBER OF ATOMS
6
ITEM: BOX BOUNDS pp pp pp
-5.0000000000000000e+00 5.0000000000000000e+00
-5.0000000000000000e+00 5.0000000000000000e+00
-5.0000000000000000e+00 5.0000000000000000e+00
ITEM: ATOMS id type xs ys zs
1 1 0.499012 0.5 0.395549
2 2 0.559921 0.5 0.316723
3 2 0.555763 0.5 0.477395
4 1 0.499012 0.5 0.904451
5 2 0.559922 0.5 0.983277
6 2 0.555763 0.5 0.822605
ITEM: TIMESTEP
800
ITEM: NUMBER OF ATOMS
6
ITEM: BOX BOUNDS pp pp pp
-5.0000000000000000e+00 5.0000000000000000e+00
-5.0000000000000000e+00 5.0000000000000000e+00
-5.0000000000000000e+00 5.0000000000000000e+00
ITEM: ATOMS id type xs ys zs
1 1 0.499045 0.500001 0.403188
2 2 0.555927 0.499994 0.320822
3 2 0.559232 0.499994 0.483172
4 1 0.499045 0.499999 0.896815
5 2 0.555957 0.500006 0.97916
6 2 0.559202 0.500006 0.816809
ITEM: TIMESTEP
900
ITEM: NUMBER OF ATOMS
6
ITEM: BOX BOUNDS pp pp pp
-5.0000000000000000e+00 5.0000000000000000e+00
-5.0000000000000000e+00 5.0000000000000000e+00
-5.0000000000000000e+00 5.0000000000000000e+00
ITEM: ATOMS id type xs ys zs
1 1 0.499058 0.500028 0.407607
2 2 0.552177 0.499711 0.3233
3 2 0.562843 0.499692 0.484184
4 1 0.499044 0.499972 0.892508
5 2 0.553635 0.500291 0.975866
6 2 0.561473 0.500308 0.81482
ITEM: TIMESTEP
1000
ITEM: NUMBER OF ATOMS
6
ITEM: BOX BOUNDS pp pp pp
-5.0000000000000000e+00 5.0000000000000000e+00
-5.0000000000000000e+00 5.0000000000000000e+00
-5.0000000000000000e+00 5.0000000000000000e+00
ITEM: ATOMS id type xs ys zs
1 1 0.500403 0.501291 0.410699
2 2 0.511239 0.488018 0.3118
3 2 0.586912 0.484368 0.458351
4 1 0.499536 0.498683 0.894187
5 2 0.578256 0.514407 0.954159
6 2 0.524565 0.513626 0.798137
ITEM: TIMESTEP
1100
ITEM: NUMBER OF ATOMS
6
ITEM: BOX BOUNDS pp pp pp
-5.0000000000000000e+00 5.0000000000000000e+00
-5.0000000000000000e+00 5.0000000000000000e+00
-5.0000000000000000e+00 5.0000000000000000e+00
ITEM: ATOMS id type xs ys zs
1 1 0.510511 0.496323 0.413819
2 2 0.421048 0.539985 0.422545
3 2 0.535553 0.494876 0.317063
4 1 0.507864 0.504016 0.895874
5 2 0.53122 0.502768 0.79866
6 2 0.420521 0.456992 0.90789
ITEM: TIMESTEP
1200
ITEM: NUMBER OF ATOMS
6
ITEM: BOX BOUNDS pp pp pp
-5.0000000000000000e+00 5.0000000000000000e+00
-5.0000000000000000e+00 5.0000000000000000e+00
-5.0000000000000000e+00 5.0000000000000000e+00
ITEM: ATOMS id type xs ys zs
1 1 0.505427 0.496464 0.416516
2 2 0.481343 0.589574 0.444119
3 2 0.555519 0.50077 0.329981
4 1 0.503103 0.50387 0.88957
5 2 0.530867 0.489453 0.794455
6 2 0.49688 0.414902 0.934843
ITEM: TIMESTEP
1300
ITEM: NUMBER OF ATOMS
6
ITEM: BOX BOUNDS pp pp pp
-5.0000000000000000e+00 5.0000000000000000e+00
-5.0000000000000000e+00 5.0000000000000000e+00
-5.0000000000000000e+00 5.0000000000000000e+00
ITEM: ATOMS id type xs ys zs
1 1 0.50656 0.509365 0.429878
2 2 0.457201 0.57317 0.370788
3 2 0.548979 0.439051 0.372724
4 1 0.504219 0.492369 0.882962
5 2 0.535251 0.55656 0.812678
6 2 0.487479 0.403689 0.840007
ITEM: TIMESTEP
1400
ITEM: NUMBER OF ATOMS
6
ITEM: BOX BOUNDS pp pp pp
-5.0000000000000000e+00 5.0000000000000000e+00
-5.0000000000000000e+00 5.0000000000000000e+00
-5.0000000000000000e+00 5.0000000000000000e+00
ITEM: ATOMS id type xs ys zs
1 1 0.504523 0.514907 0.44585
2 2 0.455202 0.539751 0.362268
3 2 0.578417 0.451169 0.423553
4 1 0.505442 0.482855 0.8648
5 2 0.543417 0.575191 0.871007
6 2 0.464797 0.469412 0.774129
ITEM: TIMESTEP
1500
ITEM: NUMBER OF ATOMS
6
ITEM: BOX BOUNDS pp pp pp
-5.0000000000000000e+00 5.0000000000000000e+00
-5.0000000000000000e+00 5.0000000000000000e+00
-5.0000000000000000e+00 5.0000000000000000e+00
ITEM: ATOMS id type xs ys zs
1 1 0.506728 0.508246 0.480365
2 2 0.42015 0.536471 0.438799
3 2 0.572436 0.487229 0.407807
4 1 0.50303 0.487859 0.830874
5 2 0.571446 0.55988 0.841679
6 2 0.481091 0.478242 0.733331
ITEM: TIMESTEP
1600
ITEM: NUMBER OF ATOMS
6
ITEM: BOX BOUNDS pp pp pp
-5.0000000000000000e+00 5.0000000000000000e+00
-5.0000000000000000e+00 5.0000000000000000e+00
-5.0000000000000000e+00 5.0000000000000000e+00
ITEM: ATOMS id type xs ys zs
1 1 0.503797 0.503822 0.522264
2 2 0.409699 0.514187 0.489091
3 2 0.557881 0.453585 0.454339
4 1 0.506051 0.495039 0.787701
5 2 0.581877 0.55562 0.811472
6 2 0.49423 0.494693 0.686926
ITEM: TIMESTEP
1700
ITEM: NUMBER OF ATOMS
6
ITEM: BOX BOUNDS pp pp pp
-5.0000000000000000e+00 5.0000000000000000e+00
-5.0000000000000000e+00 5.0000000000000000e+00
-5.0000000000000000e+00 5.0000000000000000e+00
ITEM: ATOMS id type xs ys zs
1 1 0.496496 0.497604 0.504668
2 2 0.429967 0.546064 0.447408
3 2 0.559371 0.445803 0.446306
4 1 0.512249 0.499906 0.807108
5 2 0.580238 0.573135 0.80771
6 2 0.49161 0.474531 0.711674
ITEM: TIMESTEP
1800
ITEM: NUMBER OF ATOMS
6
ITEM: BOX BOUNDS pp pp pp
-5.0000000000000000e+00 5.0000000000000000e+00
-5.0000000000000000e+00 5.0000000000000000e+00
-5.0000000000000000e+00 5.0000000000000000e+00
ITEM: ATOMS id type xs ys zs
1 1 0.495323 0.494753 0.515408
2 2 0.417203 0.5332 0.465705
3 2 0.523942 0.409327 0.47139
4 1 0.515778 0.503997 0.79423
5 2 0.573286 0.582646 0.816306
6 2 0.50937 0.494659 0.693633
ITEM: TIMESTEP
1900
ITEM: NUMBER OF ATOMS
6
ITEM: BOX BOUNDS pp pp pp
-5.0000000000000000e+00 5.0000000000000000e+00
-5.0000000000000000e+00 5.0000000000000000e+00
-5.0000000000000000e+00 5.0000000000000000e+00
ITEM: ATOMS id type xs ys zs
1 1 0.490062 0.488595 0.520849
2 2 0.433782 0.544116 0.459242
3 2 0.540632 0.42079 0.467029
4 1 0.518413 0.508908 0.790448
5 2 0.588193 0.579195 0.803399
6 2 0.502879 0.495541 0.69102
ITEM: TIMESTEP
2000
ITEM: NUMBER OF ATOMS
6
ITEM: BOX BOUNDS pp pp pp
-5.0000000000000000e+00 5.0000000000000000e+00
-5.0000000000000000e+00 5.0000000000000000e+00
-5.0000000000000000e+00 5.0000000000000000e+00
ITEM: ATOMS id type xs ys zs
1 1 0.488468 0.484262 0.514991
2 2 0.417199 0.534556 0.465566
3 2 0.527893 0.414531 0.454738
4 1 0.52067 0.514325 0.795766
5 2 0.599355 0.573268 0.812977
6 2 0.510516 0.500085 0.695994
ITEM: TIMESTEP
2100
ITEM: NUMBER OF ATOMS
6
ITEM: BOX BOUNDS pp pp pp
-5.0000000000000000e+00 5.0000000000000000e+00
-5.0000000000000000e+00 5.0000000000000000e+00
-5.0000000000000000e+00 5.0000000000000000e+00
ITEM: ATOMS id type xs ys zs
1 1 0.488555 0.484223 0.520734
2 2 0.408313 0.52218 0.474117
3 2 0.520814 0.403617 0.470615
4 1 0.521732 0.516097 0.789738
5 2 0.605078 0.570726 0.79728
6 2 0.502522 0.498405 0.691774
ITEM: TIMESTEP
2200
ITEM: NUMBER OF ATOMS
6
ITEM: BOX BOUNDS pp pp pp
-5.0000000000000000e+00 5.0000000000000000e+00
-5.0000000000000000e+00 5.0000000000000000e+00
-5.0000000000000000e+00 5.0000000000000000e+00
ITEM: ATOMS id type xs ys zs
1 1 0.485496 0.481176 0.521286
2 2 0.426133 0.538641 0.46456
3 2 0.526221 0.409459 0.46432
4 1 0.523951 0.517464 0.790578
5 2 0.600218 0.581775 0.786566
6 2 0.497483 0.491713 0.696247
ITEM: TIMESTEP
2300
ITEM: NUMBER OF ATOMS
6
ITEM: BOX BOUNDS pp pp pp
-5.0000000000000000e+00 5.0000000000000000e+00
-5.0000000000000000e+00 5.0000000000000000e+00
-5.0000000000000000e+00 5.0000000000000000e+00
ITEM: ATOMS id type xs ys zs
1 1 0.485271 0.481553 0.519292
2 2 0.4179 0.527188 0.46082
3 2 0.51385 0.395784 0.476074
4 1 0.524763 0.517779 0.791183
5 2 0.599027 0.582967 0.805113
6 2 0.509958 0.504659 0.691742
ITEM: TIMESTEP
2400
ITEM: NUMBER OF ATOMS
6
ITEM: BOX BOUNDS pp pp pp
-5.0000000000000000e+00 5.0000000000000000e+00
-5.0000000000000000e+00 5.0000000000000000e+00
-5.0000000000000000e+00 5.0000000000000000e+00
ITEM: ATOMS id type xs ys zs
1 1 0.485403 0.480601 0.520513
2 2 0.423116 0.534352 0.46331
3 2 0.513208 0.39819 0.47077
4 1 0.524332 0.518424 0.790412
5 2 0.601215 0.5813 0.800761
6 2 0.507961 0.501632 0.691769
ITEM: TIMESTEP
2500
ITEM: NUMBER OF ATOMS
6
ITEM: BOX BOUNDS pp pp pp
-5.0000000000000000e+00 5.0000000000000000e+00
-5.0000000000000000e+00 5.0000000000000000e+00
-5.0000000000000000e+00 5.0000000000000000e+00
ITEM: ATOMS id type xs ys zs
1 1 0.485921 0.480721 0.521416
2 2 0.426667 0.535699 0.462171
3 2 0.52001 0.401703 0.470042
4 1 0.523382 0.518886 0.790139
5 2 0.608039 0.571838 0.789808
6 2 0.497632 0.496993 0.694568
ITEM: TIMESTEP
2600
ITEM: NUMBER OF ATOMS
6
ITEM: BOX BOUNDS pp pp pp
-5.0000000000000000e+00 5.0000000000000000e+00
-5.0000000000000000e+00 5.0000000000000000e+00
-5.0000000000000000e+00 5.0000000000000000e+00
ITEM: ATOMS id type xs ys zs
1 1 0.487783 0.481436 0.519958
2 2 0.420016 0.533943 0.467952
3 2 0.508478 0.396363 0.471106
4 1 0.522256 0.518586 0.790688
5 2 0.608154 0.568791 0.799387
6 2 0.504017 0.500562 0.692587
ITEM: TIMESTEP
2700
ITEM: NUMBER OF ATOMS
6
ITEM: BOX BOUNDS pp pp pp
-5.0000000000000000e+00 5.0000000000000000e+00
-5.0000000000000000e+00 5.0000000000000000e+00
-5.0000000000000000e+00 5.0000000000000000e+00
ITEM: ATOMS id type xs ys zs
1 1 0.487039 0.481575 0.519314
2 2 0.432914 0.540474 0.458833
3 2 0.514466 0.399016 0.469453
4 1 0.521772 0.517796 0.791725
5 2 0.607138 0.568259 0.803697
6 2 0.505635 0.502242 0.692819
ITEM: TIMESTEP
2800
ITEM: NUMBER OF ATOMS
6
ITEM: BOX BOUNDS pp pp pp
-5.0000000000000000e+00 5.0000000000000000e+00
-5.0000000000000000e+00 5.0000000000000000e+00
-5.0000000000000000e+00 5.0000000000000000e+00
ITEM: ATOMS id type xs ys zs
1 1 0.488373 0.483036 0.520884
2 2 0.43728 0.54289 0.458788
3 2 0.509057 0.396737 0.47424
4 1 0.520827 0.516465 0.790201
5 2 0.605774 0.568178 0.799186
6 2 0.50186 0.500117 0.691852
ITEM: TIMESTEP
2900
ITEM: NUMBER OF ATOMS
6
ITEM: BOX BOUNDS pp pp pp
-5.0000000000000000e+00 5.0000000000000000e+00
-5.0000000000000000e+00 5.0000000000000000e+00
-5.0000000000000000e+00 5.0000000000000000e+00
ITEM: ATOMS id type xs ys zs
1 1 0.489543 0.483853 0.519657
2 2 0.436418 0.544009 0.459608
3 2 0.50178 0.394896 0.475107
4 1 0.520186 0.51597 0.791229
5 2 0.60716 0.564396 0.799287
6 2 0.500231 0.499505 0.693227
ITEM: TIMESTEP
3000
ITEM: NUMBER OF ATOMS
6
ITEM: BOX BOUNDS pp pp pp
-5.0000000000000000e+00 5.0000000000000000e+00
-5.0000000000000000e+00 5.0000000000000000e+00
-5.0000000000000000e+00 5.0000000000000000e+00
ITEM: ATOMS id type xs ys zs
1 1 0.488779 0.483779 0.518651
2 2 0.443112 0.547871 0.456525
3 2 0.505803 0.397423 0.470655
4 1 0.519959 0.516025 0.792403
5 2 0.61058 0.55641 0.803583
6 2 0.501818 0.501401 0.693784
ITEM: TIMESTEP
3100
ITEM: NUMBER OF ATOMS
6
ITEM: BOX BOUNDS pp pp pp
-5.0000000000000000e+00 5.0000000000000000e+00
-5.0000000000000000e+00 5.0000000000000000e+00
-5.0000000000000000e+00 5.0000000000000000e+00
ITEM: ATOMS id type xs ys zs
1 1 0.489314 0.484393 0.520573
2 2 0.442206 0.550382 0.461603
3 2 0.499387 0.397447 0.471688
4 1 0.519636 0.515569 0.790199
5 2 0.611858 0.550886 0.804975
6 2 0.504486 0.501892 0.690772
ITEM: TIMESTEP
3200
ITEM: NUMBER OF ATOMS
6
ITEM: BOX BOUNDS pp pp pp
-5.0000000000000000e+00 5.0000000000000000e+00
-5.0000000000000000e+00 5.0000000000000000e+00
-5.0000000000000000e+00 5.0000000000000000e+00
ITEM: ATOMS id type xs ys zs
1 1 0.488602 0.485022 0.51968
2 2 0.445835 0.551424 0.457944
3 2 0.496839 0.396724 0.472927
4 1 0.520422 0.515152 0.791351
5 2 0.614323 0.547804 0.800999
6 2 0.499778 0.501296 0.693036
ITEM: TIMESTEP
3300
ITEM: NUMBER OF ATOMS
6
ITEM: BOX BOUNDS pp pp pp
-5.0000000000000000e+00 5.0000000000000000e+00
-5.0000000000000000e+00 5.0000000000000000e+00
-5.0000000000000000e+00 5.0000000000000000e+00
ITEM: ATOMS id type xs ys zs
1 1 0.487647 0.485373 0.518869
2 2 0.448923 0.554095 0.456978
3 2 0.489594 0.3964 0.472703
4 1 0.521553 0.514622 0.792156
5 2 0.614945 0.54873 0.801337
6 2 0.500523 0.50084 0.693992
ITEM: TIMESTEP
3400
ITEM: NUMBER OF ATOMS
6
ITEM: BOX BOUNDS pp pp pp
-5.0000000000000000e+00 5.0000000000000000e+00
-5.0000000000000000e+00 5.0000000000000000e+00
-5.0000000000000000e+00 5.0000000000000000e+00
ITEM: ATOMS id type xs ys zs
1 1 0.486701 0.486076 0.520465
2 2 0.449504 0.554315 0.457159
3 2 0.4842 0.395714 0.47714
4 1 0.522443 0.514067 0.790306
5 2 0.616461 0.544898 0.803691
6 2 0.504704 0.502801 0.691049
ITEM: TIMESTEP
3500
ITEM: NUMBER OF ATOMS
6
ITEM: BOX BOUNDS pp pp pp
-5.0000000000000000e+00 5.0000000000000000e+00
-5.0000000000000000e+00 5.0000000000000000e+00
-5.0000000000000000e+00 5.0000000000000000e+00
ITEM: ATOMS id type xs ys zs
1 1 0.484961 0.485904 0.520172
2 2 0.455613 0.557793 0.456761
3 2 0.482801 0.397319 0.473274
4 1 0.523839 0.514283 0.790969
5 2 0.619894 0.539953 0.800457
6 2 0.502011 0.501961 0.692684
ITEM: TIMESTEP
3600
ITEM: NUMBER OF ATOMS
6
ITEM: BOX BOUNDS pp pp pp
-5.0000000000000000e+00 5.0000000000000000e+00
-5.0000000000000000e+00 5.0000000000000000e+00
-5.0000000000000000e+00 5.0000000000000000e+00
ITEM: ATOMS id type xs ys zs
1 1 0.484546 0.486231 0.519593
2 2 0.451003 0.557648 0.457715
3 2 0.473067 0.396577 0.47619
4 1 0.525003 0.514412 0.791302
5 2 0.622813 0.532679 0.799823
6 2 0.50157 0.502888 0.693343
ITEM: TIMESTEP
3700
ITEM: NUMBER OF ATOMS
6
ITEM: BOX BOUNDS pp pp pp
-5.0000000000000000e+00 5.0000000000000000e+00
-5.0000000000000000e+00 5.0000000000000000e+00
-5.0000000000000000e+00 5.0000000000000000e+00
ITEM: ATOMS id type xs ys zs
1 1 0.48332 0.486412 0.520542
2 2 0.456594 0.559971 0.457913
3 2 0.468253 0.397828 0.476126
4 1 0.525985 0.514196 0.790407
5 2 0.624173 0.529622 0.799981
6 2 0.503288 0.502925 0.692209
ITEM: TIMESTEP
3800
ITEM: NUMBER OF ATOMS
6
ITEM: BOX BOUNDS pp pp pp
-5.0000000000000000e+00 5.0000000000000000e+00
-5.0000000000000000e+00 5.0000000000000000e+00
-5.0000000000000000e+00 5.0000000000000000e+00
ITEM: ATOMS id type xs ys zs
1 1 0.481912 0.486956 0.520768
2 2 0.464644 0.559673 0.453952
3 2 0.465792 0.39781 0.477817
4 1 0.526935 0.513777 0.790342
5 2 0.625445 0.527144 0.799759
6 2 0.50371 0.503737 0.692121
ITEM: TIMESTEP
3900
ITEM: NUMBER OF ATOMS
6
ITEM: BOX BOUNDS pp pp pp
-5.0000000000000000e+00 5.0000000000000000e+00
-5.0000000000000000e+00 5.0000000000000000e+00
-5.0000000000000000e+00 5.0000000000000000e+00
ITEM: ATOMS id type xs ys zs
1 1 0.482202 0.487213 0.520139
2 2 0.462824 0.560437 0.454446
3 2 0.452947 0.399386 0.481617
4 1 0.527501 0.513482 0.790668
5 2 0.626212 0.525507 0.799904
6 2 0.504004 0.503647 0.692503
ITEM: TIMESTEP
4000
ITEM: NUMBER OF ATOMS
6
ITEM: BOX BOUNDS pp pp pp
-5.0000000000000000e+00 5.0000000000000000e+00
-5.0000000000000000e+00 5.0000000000000000e+00
-5.0000000000000000e+00 5.0000000000000000e+00
ITEM: ATOMS id type xs ys zs
1 1 0.481423 0.487454 0.520351
2 2 0.470609 0.560168 0.452202
3 2 0.451629 0.400243 0.480916
4 1 0.527936 0.513467 0.790731
5 2 0.627288 0.520729 0.79781
6 2 0.501921 0.504236 0.693171
ITEM: TIMESTEP
4100
ITEM: NUMBER OF ATOMS
6
ITEM: BOX BOUNDS pp pp pp
-5.0000000000000000e+00 5.0000000000000000e+00
-5.0000000000000000e+00 5.0000000000000000e+00
-5.0000000000000000e+00 5.0000000000000000e+00
ITEM: ATOMS id type xs ys zs
1 1 0.481226 0.487613 0.521079
2 2 0.47411 0.560332 0.452431
3 2 0.449203 0.401239 0.481502
4 1 0.527923 0.513565 0.789913
5 2 0.627258 0.51496 0.799896
6 2 0.504211 0.50477 0.691693
ITEM: TIMESTEP
4200
ITEM: NUMBER OF ATOMS
6
ITEM: BOX BOUNDS pp pp pp
-5.0000000000000000e+00 5.0000000000000000e+00
-5.0000000000000000e+00 5.0000000000000000e+00
-5.0000000000000000e+00 5.0000000000000000e+00
ITEM: ATOMS id type xs ys zs
1 1 0.481576 0.487478 0.52031
2 2 0.473065 0.561831 0.453607
3 2 0.443477 0.403324 0.481362
4 1 0.527943 0.513682 0.790477
5 2 0.627146 0.511842 0.801787
6 2 0.505235 0.504591 0.692043
ITEM: TIMESTEP
4300
ITEM: NUMBER OF ATOMS
6
ITEM: BOX BOUNDS pp pp pp
-5.0000000000000000e+00 5.0000000000000000e+00
-5.0000000000000000e+00 5.0000000000000000e+00
-5.0000000000000000e+00 5.0000000000000000e+00
ITEM: ATOMS id type xs ys zs
1 1 0.481392 0.487928 0.520048
2 2 0.477115 0.560443 0.450952
3 2 0.445799 0.402704 0.481056
4 1 0.52793 0.5134 0.791028
5 2 0.627458 0.510303 0.798764
6 2 0.501669 0.505463 0.693425
ITEM: TIMESTEP
4400
ITEM: NUMBER OF ATOMS
6
ITEM: BOX BOUNDS pp pp pp
-5.0000000000000000e+00 5.0000000000000000e+00
-5.0000000000000000e+00 5.0000000000000000e+00
-5.0000000000000000e+00 5.0000000000000000e+00
ITEM: ATOMS id type xs ys zs
1 1 0.481994 0.488267 0.52105
2 2 0.476034 0.561847 0.45321
3 2 0.444231 0.403956 0.48208
4 1 0.527423 0.512768 0.789873
5 2 0.626786 0.513438 0.799668
6 2 0.503482 0.504332 0.691673
ITEM: TIMESTEP
4500
ITEM: NUMBER OF ATOMS
6
ITEM: BOX BOUNDS pp pp pp
-5.0000000000000000e+00 5.0000000000000000e+00
-5.0000000000000000e+00 5.0000000000000000e+00
-5.0000000000000000e+00 5.0000000000000000e+00
ITEM: ATOMS id type xs ys zs
1 1 0.481908 0.488697 0.520105
2 2 0.474342 0.561474 0.451595
3 2 0.447896 0.402775 0.481253
4 1 0.527313 0.51232 0.790791
5 2 0.626496 0.515122 0.802027
6 2 0.504926 0.504494 0.692185
ITEM: TIMESTEP
4600
ITEM: NUMBER OF ATOMS
6
ITEM: BOX BOUNDS pp pp pp
-5.0000000000000000e+00 5.0000000000000000e+00
-5.0000000000000000e+00 5.0000000000000000e+00
-5.0000000000000000e+00 5.0000000000000000e+00
ITEM: ATOMS id type xs ys zs
1 1 0.482157 0.488801 0.519772
2 2 0.471781 0.563273 0.453447
3 2 0.452321 0.402656 0.478043
4 1 0.527092 0.512047 0.791258
5 2 0.626445 0.516876 0.800244
6 2 0.502659 0.50374 0.693202
ITEM: TIMESTEP
4700
ITEM: NUMBER OF ATOMS
6
ITEM: BOX BOUNDS pp pp pp
-5.0000000000000000e+00 5.0000000000000000e+00
-5.0000000000000000e+00 5.0000000000000000e+00
-5.0000000000000000e+00 5.0000000000000000e+00
ITEM: ATOMS id type xs ys zs
1 1 0.483046 0.489159 0.5208
2 2 0.464822 0.564065 0.456706
3 2 0.456326 0.402153 0.47876
4 1 0.526455 0.511669 0.790114
5 2 0.62573 0.51714 0.799371
6 2 0.502326 0.503491 0.691933
ITEM: TIMESTEP
4800
ITEM: NUMBER OF ATOMS
6
ITEM: BOX BOUNDS pp pp pp
-5.0000000000000000e+00 5.0000000000000000e+00
-5.0000000000000000e+00 5.0000000000000000e+00
-5.0000000000000000e+00 5.0000000000000000e+00
ITEM: ATOMS id type xs ys zs
1 1 0.48271 0.489257 0.519912
2 2 0.464441 0.564856 0.456678
3 2 0.464554 0.402138 0.473772
4 1 0.526283 0.511371 0.791156
5 2 0.625246 0.52026 0.801043
6 2 0.503025 0.502785 0.692836
ITEM: TIMESTEP
4900
ITEM: NUMBER OF ATOMS
6
ITEM: BOX BOUNDS pp pp pp
-5.0000000000000000e+00 5.0000000000000000e+00
-5.0000000000000000e+00 5.0000000000000000e+00
-5.0000000000000000e+00 5.0000000000000000e+00
ITEM: ATOMS id type xs ys zs
1 1 0.483489 0.489702 0.519562
2 2 0.457724 0.564342 0.45777
3 2 0.46675 0.401783 0.474363
4 1 0.52578 0.510753 0.791311
5 2 0.624087 0.524123 0.802758
6 2 0.504308 0.50252 0.692547
ITEM: TIMESTEP
5000
ITEM: NUMBER OF ATOMS
6
ITEM: BOX BOUNDS pp pp pp
-5.0000000000000000e+00 5.0000000000000000e+00
-5.0000000000000000e+00 5.0000000000000000e+00
-5.0000000000000000e+00 5.0000000000000000e+00
ITEM: ATOMS id type xs ys zs
1 1 0.484153 0.490121 0.520354
2 2 0.455636 0.56444 0.459416
3 2 0.471516 0.402227 0.473827
4 1 0.525182 0.510097 0.790647
5 2 0.622911 0.52849 0.799814
6 2 0.501766 0.501376 0.692331
ITEM: TIMESTEP
5100
ITEM: NUMBER OF ATOMS
6
ITEM: BOX BOUNDS pp pp pp
-5.0000000000000000e+00 5.0000000000000000e+00
-5.0000000000000000e+00 5.0000000000000000e+00
-5.0000000000000000e+00 5.0000000000000000e+00
ITEM: ATOMS id type xs ys zs
1 1 0.484159 0.490328 0.519738
2 2 0.454915 0.56427 0.458686
3 2 0.478632 0.40284 0.471093
4 1 0.524853 0.509763 0.791398
5 2 0.622136 0.530424 0.800297
6 2 0.501275 0.501023 0.693181
ITEM: TIMESTEP
5200
ITEM: NUMBER OF ATOMS
6
ITEM: BOX BOUNDS pp pp pp
-5.0000000000000000e+00 5.0000000000000000e+00
-5.0000000000000000e+00 5.0000000000000000e+00
-5.0000000000000000e+00 5.0000000000000000e+00
ITEM: ATOMS id type xs ys zs
1 1 0.48506 0.490515 0.519325
2 2 0.447325 0.563596 0.462
3 2 0.478441 0.403167 0.470569
4 1 0.524279 0.509548 0.791417
5 2 0.620913 0.530932 0.804745
6 2 0.50509 0.501299 0.692184
ITEM: TIMESTEP
5300
ITEM: NUMBER OF ATOMS
6
ITEM: BOX BOUNDS pp pp pp
-5.0000000000000000e+00 5.0000000000000000e+00
-5.0000000000000000e+00 5.0000000000000000e+00
-5.0000000000000000e+00 5.0000000000000000e+00
ITEM: ATOMS id type xs ys zs
1 1 0.485046 0.490644 0.519855
2 2 0.448908 0.564167 0.462071
3 2 0.485776 0.404856 0.467998
4 1 0.523937 0.509316 0.791215
5 2 0.620802 0.531263 0.801634
6 2 0.50194 0.500357 0.692591
ITEM: TIMESTEP
5400
ITEM: NUMBER OF ATOMS
6
ITEM: BOX BOUNDS pp pp pp
-5.0000000000000000e+00 5.0000000000000000e+00
-5.0000000000000000e+00 5.0000000000000000e+00
-5.0000000000000000e+00 5.0000000000000000e+00
ITEM: ATOMS id type xs ys zs
1 1 0.485442 0.491035 0.519816
2 2 0.446664 0.563579 0.462493
3 2 0.486822 0.405027 0.468304
4 1 0.523732 0.508879 0.791259
5 2 0.620208 0.532922 0.80049
6 2 0.500685 0.499833 0.692934
ITEM: TIMESTEP
5500
ITEM: NUMBER OF ATOMS
6
ITEM: BOX BOUNDS pp pp pp
-5.0000000000000000e+00 5.0000000000000000e+00
-5.0000000000000000e+00 5.0000000000000000e+00
-5.0000000000000000e+00 5.0000000000000000e+00
ITEM: ATOMS id type xs ys zs
1 1 0.485681 0.491381 0.519111
2 2 0.443348 0.563056 0.463269
3 2 0.483841 0.404633 0.468919
4 1 0.523748 0.508394 0.791653
5 2 0.618947 0.535688 0.804473
6 2 0.504202 0.500187 0.692504
ITEM: TIMESTEP
5600
ITEM: NUMBER OF ATOMS
6
ITEM: BOX BOUNDS pp pp pp
-5.0000000000000000e+00 5.0000000000000000e+00
-5.0000000000000000e+00 5.0000000000000000e+00
-5.0000000000000000e+00 5.0000000000000000e+00
ITEM: ATOMS id type xs ys zs
1 1 0.484777 0.491539 0.519517
2 2 0.448436 0.564038 0.460562
3 2 0.489811 0.405867 0.467683
4 1 0.524014 0.508107 0.791581
5 2 0.619325 0.535657 0.802925
6 2 0.502895 0.50005 0.692696
ITEM: TIMESTEP
5700
ITEM: NUMBER OF ATOMS
6
ITEM: BOX BOUNDS pp pp pp
-5.0000000000000000e+00 5.0000000000000000e+00
-5.0000000000000000e+00 5.0000000000000000e+00
-5.0000000000000000e+00 5.0000000000000000e+00
ITEM: ATOMS id type xs ys zs
1 1 0.485304 0.491705 0.520184
2 2 0.444139 0.56433 0.464656
3 2 0.484764 0.405845 0.468412
4 1 0.524092 0.508074 0.790767
5 2 0.62 0.533987 0.800953
6 2 0.501964 0.499346 0.692165
ITEM: TIMESTEP
5800
ITEM: NUMBER OF ATOMS
6
ITEM: BOX BOUNDS pp pp pp
-5.0000000000000000e+00 5.0000000000000000e+00
-5.0000000000000000e+00 5.0000000000000000e+00
-5.0000000000000000e+00 5.0000000000000000e+00
ITEM: ATOMS id type xs ys zs
1 1 0.484646 0.491758 0.51905
2 2 0.443527 0.564201 0.463298
3 2 0.483879 0.405709 0.467649
4 1 0.524734 0.508258 0.791904
5 2 0.62176 0.529723 0.801729
6 2 0.501958 0.500108 0.693473
ITEM: TIMESTEP
5900
ITEM: NUMBER OF ATOMS
6
ITEM: BOX BOUNDS pp pp pp
-5.0000000000000000e+00 5.0000000000000000e+00
-5.0000000000000000e+00 5.0000000000000000e+00
-5.0000000000000000e+00 5.0000000000000000e+00
ITEM: ATOMS id type xs ys zs
1 1 0.48357 0.491648 0.519539
2 2 0.449079 0.566933 0.463
3 2 0.483231 0.406889 0.465984
4 1 0.525328 0.508204 0.791513
5 2 0.622442 0.528434 0.802902
6 2 0.504018 0.500091 0.692692
ITEM: TIMESTEP
6000
ITEM: NUMBER OF ATOMS
6
ITEM: BOX BOUNDS pp pp pp
-5.0000000000000000e+00 5.0000000000000000e+00
-5.0000000000000000e+00 5.0000000000000000e+00
-5.0000000000000000e+00 5.0000000000000000e+00
ITEM: ATOMS id type xs ys zs
1 1 0.483658 0.492298 0.520691
2 2 0.448712 0.566356 0.462863
3 2 0.475429 0.405153 0.47182
4 1 0.525703 0.507791 0.790178
5 2 0.623202 0.526279 0.801522
6 2 0.504092 0.500805 0.691272
ITEM: TIMESTEP
6100
ITEM: NUMBER OF ATOMS
6
ITEM: BOX BOUNDS pp pp pp
-5.0000000000000000e+00 5.0000000000000000e+00
-5.0000000000000000e+00 5.0000000000000000e+00
-5.0000000000000000e+00 5.0000000000000000e+00
ITEM: ATOMS id type xs ys zs
1 1 0.482623 0.492333 0.519166
2 2 0.456134 0.56849 0.459605
3 2 0.47022 0.405791 0.470103
4 1 0.526722 0.507714 0.792003
5 2 0.624854 0.524903 0.798603
6 2 0.500474 0.500077 0.694425
ITEM: TIMESTEP
6200
ITEM: NUMBER OF ATOMS
6
ITEM: BOX BOUNDS pp pp pp
-5.0000000000000000e+00 5.0000000000000000e+00
-5.0000000000000000e+00 5.0000000000000000e+00
-5.0000000000000000e+00 5.0000000000000000e+00
ITEM: ATOMS id type xs ys zs
1 1 0.482312 0.49262 0.519687
2 2 0.459025 0.568649 0.458624
3 2 0.462489 0.405746 0.473746
4 1 0.52705 0.507759 0.791236
5 2 0.625849 0.5179 0.801581
6 2 0.504039 0.501695 0.692673
ITEM: TIMESTEP
6300
ITEM: NUMBER OF ATOMS
6
ITEM: BOX BOUNDS pp pp pp
-5.0000000000000000e+00 5.0000000000000000e+00
-5.0000000000000000e+00 5.0000000000000000e+00
-5.0000000000000000e+00 5.0000000000000000e+00
ITEM: ATOMS id type xs ys zs
1 1 0.481892 0.492545 0.521007
2 2 0.467005 0.570529 0.459791
3 2 0.456204 0.407854 0.473915
4 1 0.527226 0.508083 0.789902
5 2 0.626328 0.509825 0.802258
6 2 0.505746 0.501816 0.690894
ITEM: TIMESTEP
6400
ITEM: NUMBER OF ATOMS
6
ITEM: BOX BOUNDS pp pp pp
-5.0000000000000000e+00 5.0000000000000000e+00
-5.0000000000000000e+00 5.0000000000000000e+00
-5.0000000000000000e+00 5.0000000000000000e+00
ITEM: ATOMS id type xs ys zs
1 1 0.481329 0.492699 0.519449
2 2 0.475279 0.569655 0.455465
3 2 0.450016 0.409009 0.473962
4 1 0.527898 0.508386 0.791721
5 2 0.627163 0.500711 0.799189
6 2 0.501083 0.5034 0.694103
ITEM: TIMESTEP
6500
ITEM: NUMBER OF ATOMS
6
ITEM: BOX BOUNDS pp pp pp
-5.0000000000000000e+00 5.0000000000000000e+00
-5.0000000000000000e+00 5.0000000000000000e+00
-5.0000000000000000e+00 5.0000000000000000e+00
ITEM: ATOMS id type xs ys zs
1 1 0.482178 0.492885 0.519662
2 2 0.476925 0.570267 0.456171
3 2 0.435075 0.413887 0.47983
4 1 0.527811 0.508127 0.791068
5 2 0.626489 0.496231 0.800783
6 2 0.502952 0.503548 0.692914
ITEM: TIMESTEP
6600
ITEM: NUMBER OF ATOMS
6
ITEM: BOX BOUNDS pp pp pp
-5.0000000000000000e+00 5.0000000000000000e+00
-5.0000000000000000e+00 5.0000000000000000e+00
-5.0000000000000000e+00 5.0000000000000000e+00
ITEM: ATOMS id type xs ys zs
1 1 0.481044 0.493826 0.520797
2 2 0.492484 0.566116 0.452256
3 2 0.434652 0.415346 0.479046
4 1 0.527886 0.507545 0.790233
5 2 0.625998 0.493248 0.802218
6 2 0.505119 0.503529 0.691419
ITEM: TIMESTEP
6700
ITEM: NUMBER OF ATOMS
6
ITEM: BOX BOUNDS pp pp pp
-5.0000000000000000e+00 5.0000000000000000e+00
-5.0000000000000000e+00 5.0000000000000000e+00
-5.0000000000000000e+00 5.0000000000000000e+00
ITEM: ATOMS id type xs ys zs
1 1 0.481173 0.494484 0.519867
2 2 0.493053 0.56562 0.450233
3 2 0.428989 0.418187 0.48103
4 1 0.528123 0.507054 0.791059
5 2 0.625322 0.487559 0.803004
6 2 0.505095 0.504235 0.692313
ITEM: TIMESTEP
6800
ITEM: NUMBER OF ATOMS
6
ITEM: BOX BOUNDS pp pp pp
-5.0000000000000000e+00 5.0000000000000000e+00
-5.0000000000000000e+00 5.0000000000000000e+00
-5.0000000000000000e+00 5.0000000000000000e+00
ITEM: ATOMS id type xs ys zs
1 1 0.481954 0.494507 0.519376
2 2 0.487396 0.572499 0.456661
3 2 0.423 0.423857 0.479647
4 1 0.528307 0.506577 0.791332
5 2 0.624839 0.482558 0.800171
6 2 0.501907 0.503883 0.693557
ITEM: TIMESTEP
6900
ITEM: NUMBER OF ATOMS
6
ITEM: BOX BOUNDS pp pp pp
-5.0000000000000000e+00 5.0000000000000000e+00
-5.0000000000000000e+00 5.0000000000000000e+00
-5.0000000000000000e+00 5.0000000000000000e+00
ITEM: ATOMS id type xs ys zs
1 1 0.48062 0.496543 0.52036
2 2 0.49158 0.571229 0.454331
3 2 0.437651 0.418073 0.47507
4 1 0.528529 0.505312 0.790868
5 2 0.623726 0.476404 0.799361
6 2 0.501831 0.504859 0.69303
ITEM: TIMESTEP
7000
ITEM: NUMBER OF ATOMS
6
ITEM: BOX BOUNDS pp pp pp
-5.0000000000000000e+00 5.0000000000000000e+00
-5.0000000000000000e+00 5.0000000000000000e+00
-5.0000000000000000e+00 5.0000000000000000e+00
ITEM: ATOMS id type xs ys zs
1 1 0.481117 0.497816 0.520596
2 2 0.483216 0.579133 0.462025
3 2 0.437214 0.42238 0.471303
4 1 0.528115 0.503134 0.790159
5 2 0.624818 0.483305 0.805324
6 2 0.508225 0.500106 0.690647
ITEM: TIMESTEP
7100
ITEM: NUMBER OF ATOMS
6
ITEM: BOX BOUNDS pp pp pp
-5.0000000000000000e+00 5.0000000000000000e+00
-5.0000000000000000e+00 5.0000000000000000e+00