6
Atoms. Timestep: 0
O 0 0 0
H 0 0 -1
H 1 0 0
O 0 0 3
H 0 0 4
H 1 0 3
6
Atoms. Timestep: 10
O 0.0153738 -2.91793e-20 -0.0233788
H -0.216309 -1.99515e-19 -0.985576
H 0.972296 -1.04311e-19 0.222443
O 0.0153738 -7.61519e-21 3.02338
H -0.216309 2.75068e-19 3.98558
H 0.972296 4.40771e-19 2.77756
6
Atoms. Timestep: 20
O 0.0155537 -6.67845e-20 -0.0465157
H -0.238415 -3.06051e-19 -1.03605
H 0.991545 -3.58047e-19 0.26178
O 0.0155537 -4.06799e-20 3.04652
H -0.238415 2.63357e-19 4.03605
H 0.991545 1.42562e-18 2.73822
6
Atoms. Timestep: 30
O -0.00195272 -8.04159e-20 -0.0651555
H 0.0208386 -8.78414e-19 -1.08007
H 1.01015 -6.77646e-19 0.0245624
O -0.00195272 -1.83263e-19 3.06516
H 0.0208386 1.60053e-18 4.08007
H 1.01015 3.28465e-18 2.97544
6
Atoms. Timestep: 40
O 0.00715456 -4.09292e-20 -0.116549
H -0.0579447 -1.99765e-18 -1.08682
H 0.944387 -1.78914e-18 0.127262
O 0.00715456 -3.04119e-19 3.11655
H -0.0579447 2.68077e-18 4.08682
H 0.944387 5.36457e-18 2.87274
6
Atoms. Timestep: 50
O 0.0146463 1.40049e-20 -0.171296
H -0.15705 -2.92827e-18 -1.16523
H 0.924583 -3.10244e-18 0.267301
O 0.0146463 -4.05678e-19 3.1713
H -0.15705 3.37787e-18 4.16523
H 0.924583 7.32617e-18 2.7327
6
Atoms. Timestep: 60
O -0.00338037 4.10453e-19 -0.209947
H 0.0854303 -6.2848e-18 -1.21539
H 0.968223 -7.35828e-18 0.0717134
O -0.00338037 -1.10621e-18 3.20995
H 0.0854303 9.18943e-18 4.21539
H 0.968223 1.39707e-17 2.92829
6
Atoms. Timestep: 70
O -0.00584291 9.90426e-19 -0.262131
H 0.144653 -1.1694e-17 -1.25815
H 0.948086 -1.45055e-17 0.0514612
O -0.00584291 -2.03123e-18 3.26213
H 0.144653 1.72201e-17 4.25815
H 0.948086 2.27629e-17 2.94854
6
Atoms. Timestep: 80
O 0.0093234 1.21677e-18 -0.325672
H 0.00497513 -1.27051e-17 -1.32502
H 0.847044 -2.13606e-17 0.216473
O 0.0093234 -2.25724e-18 3.32567
H 0.00497513 1.82558e-17 4.32502
H 0.847044 2.77197e-17 2.78353
6
Atoms. Timestep: 90
O 0.000292758 2.75401e-18 -0.375984
H 0.141921 -2.22727e-17 -1.34913
H 0.853433 -4.07352e-17 0.119402
O 0.000292758 -4.08102e-18 3.37598
H 0.141921 3.14201e-17 4.34913
H 0.853433 4.71613e-17 2.8806
6
Atoms. Timestep: 100
O -0.0139442 6.64493e-18 -0.42441
H 0.314613 -5.06039e-17 -1.38701
H 0.906709 -8.07598e-17 0.00658266
O -0.0139442 -8.40759e-18 3.42441
H 0.314613 6.39504e-17 4.38701
H 0.906709 8.86041e-17 2.99342
6
Atoms. Timestep: 110
O -0.00218078 9.08556e-18 -0.483238
H 0.226125 -6.31289e-17 -1.46522
H 0.808488 -1.16569e-16 0.109227
O -0.00218078 -1.08634e-17 3.48324
H 0.226125 7.70228e-17 4.46522
H 0.808488 1.21799e-16 2.89077
6
Atoms. Timestep: 120
O 0.00348423 1.21242e-17 -0.538075
H 0.206282 -7.41593e-17 -1.51408
H 0.738417 -1.68657e-16 0.137748
O 0.00348423 -1.39145e-17 3.53807
H 0.206282 9.04274e-17 4.51408
H 0.738417 1.71869e-16 2.86225
6
Atoms. Timestep: 130
O -0.0114145 2.51263e-17 -0.584638
H 0.384551 -1.68362e-16 -1.48945
H 0.796621 -3.05987e-16 -0.012921
O -0.0114145 -2.74742e-17 3.58464
H 0.384551 1.91581e-16 4.48945
H 0.796621 3.12894e-16 3.01292
6
Atoms. Timestep: 140
O -0.0129045 4.09123e-17 -0.633379
H 0.421458 -2.75761e-16 -1.5425
H 0.783362 -4.90074e-16 -0.020389
O -0.0129045 -4.35755e-17 3.63338
H 0.421458 3.05273e-16 4.5425
H 0.783362 4.97368e-16 3.02039
6
Atoms. Timestep: 150
O -0.000835146 4.88648e-17 -0.683024
H 0.332875 -2.92634e-16 -1.6424
H 0.68038 -6.64564e-16 0.0677961
O -0.000835146 -5.12234e-17 3.68302
H 0.332875 3.24969e-16 4.6424
H 0.68038 6.65911e-16 2.9322
6
Atoms. Timestep: 160
O -0.00354052 7.37282e-17 -0.727274
H 0.386044 -4.50393e-16 -1.63881
H 0.670151 -1.00588e-15 0.00294951
O -0.00354052 -7.63052e-17 3.72727
H 0.386044 4.87432e-16 4.63881
H 0.670151 1.00929e-15 2.99705
6
Atoms. Timestep: 170
O -0.0149144 1.36494e-16 -0.767834
H 0.509561 -9.33741e-16 -1.6093
H 0.72716 -1.68371e-15 -0.109203
O -0.0149144 -1.39758e-16 3.76783
H 0.509561 9.78336e-16 4.6093
H 0.72716 1.69547e-15 3.1092
6
Atoms. Timestep: 180
O -0.00996853 1.90262e-16 -0.808594
H 0.483628 -1.29067e-15 -1.68266
H 0.674593 -2.43501e-15 -0.0778949
O -0.00996853 -1.93377e-16 3.80859
H 0.483628 1.33903e-15 4.68266
H 0.674593 2.44446e-15 3.07789
6
Atoms. Timestep: 190
O -0.00177119 2.32162e-16 -0.847442
H 0.42947 -1.48717e-15 -1.7663
H 0.598643 -3.29278e-15 -0.0295139
O -0.00177119 -2.3485e-16 3.84744
H 0.42947 1.53845e-15 4.7663
H 0.598643 3.29444e-15 3.02951
6
Atoms. Timestep: 200
O -0.00731382 3.6965e-16 -0.882717
H 0.494646 -2.55197e-15 -1.73884
H 0.621439 -4.99658e-15 -0.112319
O -0.00731382 -3.72722e-16 3.88272
H 0.494646 2.6094e-15 4.73884
H 0.621439 4.99944e-15 3.11232
6
Atoms. Timestep: 210
O -0.0147185 6.30058e-16 -0.915745
H 0.571984 -4.6901e-15 -1.71543
H 0.661629 -7.86288e-15 -0.19061
O -0.0147185 -6.33889e-16 3.91575
H 0.571984 4.75676e-15 4.71543
H 0.661629 7.87097e-15 3.19061
6
Atoms. Timestep: 220
O -0.00881624 8.43616e-16 -0.947537
H 0.53626 -6.30784e-15 -1.7889
H 0.603671 -1.09185e-14 -0.156197
O -0.00881624 -8.47357e-16 3.94754
H 0.53626 6.38107e-15 4.7889
H 0.603671 1.09211e-14 3.1562
6
Atoms. Timestep: 230
O -0.00293205 1.0672e-15 -0.97731
H 0.500706 -7.99368e-15 -1.85572
H 0.545832 -1.4672e-14 -0.12573
O -0.00293205 -1.07078e-15 3.97731
H 0.500706 8.07212e-15 4.85572
H 0.545832 1.46671e-14 3.12573
6
Atoms. Timestep: 240
O -0.0080415 1.69075e-15 -1.00476
H 0.554473 -1.34449e-14 -1.82529
H 0.573161 -2.18959e-14 -0.195442
O -0.0080415 -1.695e-15 4.00476
H 0.554473 1.35297e-14 4.82529
H 0.573161 2.18956e-14 3.19544
6
Atoms. Timestep: 250
O -0.0138939 2.79255e-15 -1.03032
H 0.613126 -2.32999e-14 -1.79899
H 0.607399 -3.3595e-14 -0.257817
O -0.0138939 -2.79762e-15 4.03032
H 0.613126 2.33923e-14 4.79899
H 0.607399 3.35992e-14 3.25782
6
Atoms. Timestep: 260
O -0.00935383 3.81389e-15 -1.05409
H 0.588593 -3.26818e-14 -1.85673
H 0.559871 -4.63637e-14 -0.232156
O -0.00935383 -3.81889e-15 4.05409
H 0.588593 3.27801e-14 4.85673
H 0.559871 4.63584e-14 3.23216
6
Atoms. Timestep: 270
O -0.00380515 4.89878e-15 -1.07604
H 0.556523 -4.34799e-14 -1.91688
H 0.503873 -6.14766e-14 -0.201313
O -0.00380515 -4.90347e-15 4.07604
H 0.556523 4.35837e-14 4.91688
H 0.503873 6.14567e-14 3.20131
6
Atoms. Timestep: 280
O -0.00685629 7.46631e-15 -1.0964
H 0.590664 -6.88757e-14 -1.8951
H 0.518159 -8.95757e-14 -0.246998
O -0.00685629 -7.47139e-15 4.0964
H 0.590664 6.89852e-14 4.8951
H 0.518159 8.95507e-14 3.247
6
Atoms. Timestep: 290
O -0.0126544 1.23248e-14 -1.11523
H 0.645494 -1.16267e-13 -1.85758
H 0.555358 -1.37963e-13 -0.302671
O -0.0126544 -1.23305e-14 4.11523
H 0.645494 1.16382e-13 4.85758
H 0.555358 1.37936e-13 3.30267
6
Atoms. Timestep: 300
O -0.0108895 1.77981e-14 -1.13215
H 0.643088 -1.7281e-13 -1.88793
H 0.52975 -1.95612e-13 -0.292111
O -0.0108895 -1.78039e-14 4.13215
H 0.643088 1.72936e-13 4.88793
H 0.52975 1.9557e-13 3.29211
6
Atoms. Timestep: 310
O -0.00514059 2.32266e-14 -1.14717
H 0.611423 -2.36778e-13 -1.94453
H 0.470169 -2.5785e-13 -0.257314
O -0.00514059 -2.32319e-14 4.14717
H 0.611423 2.36918e-13 4.94453
H 0.470169 2.57786e-13 3.25731
6
Atoms. Timestep: 320
O -0.00485174 3.32432e-14 -1.16096
H 0.619374 -3.51163e-13 -1.94305
H 0.457633 -3.61299e-13 -0.273011
O -0.00485174 -3.32486e-14 4.16096
H 0.619374 3.51315e-13 4.94305
H 0.457633 3.61221e-13 3.27301
6
Atoms. Timestep: 330
O -0.0100608 5.43108e-14 -1.17387
H 0.666892 -5.73388e-13 -1.89931
H 0.492793 -5.59927e-13 -0.319027
O -0.0100608 -5.43164e-14 4.17387
H 0.666892 5.73551e-13 4.89931
H 0.492793 5.59841e-13 3.31903
6
Atoms. Timestep: 340
O -0.0120941 8.45193e-14 -1.18516
H 0.691952 -8.97309e-13 -1.89331
H 0.500005 -8.42388e-13 -0.327793
O -0.0120941 -8.45248e-14 4.18516
H 0.691952 8.97488e-13 4.89331
H 0.500005 8.42286e-13 3.32779
6
Atoms. Timestep: 350
O -0.00782823 1.16126e-13 -1.19429
H 0.672206 -1.28045e-12 -1.93432
H 0.452044 -1.14711e-12 -0.299974
O -0.00782823 -1.1613e-13 4.19429
H 0.672206 1.28065e-12 4.93432
H 0.452044 1.14698e-12 3.29997
6
Atoms. Timestep: 360
O -0.00394629 1.56726e-13 -1.202
H 0.653874 -1.80794e-12 -1.9587
H 0.408762 -1.53767e-12 -0.28837
O -0.00394629 -1.5673e-13 4.202
H 0.653874 1.80816e-12 4.9587
H 0.408762 1.5375e-12 3.28837
6
Atoms. Timestep: 370
O -0.00604278 2.39894e-13 -1.20933
H 0.676137 -2.7715e-12 -1.93258
H 0.419774 -2.29642e-12 -0.311202
O -0.00604278 -2.39898e-13 4.20933
H 0.676137 2.77174e-12 4.93258
H 0.419774 2.29623e-12 3.3112
6
Atoms. Timestep: 380
O -0.0106854 3.91709e-13 -1.21598
H 0.71669 -4.4235e-12 -1.8985
H 0.452909 -3.64487e-12 -0.332181
O -0.0106854 -3.91713e-13 4.21598
H 0.71669 4.42376e-12 4.8985
H 0.452909 3.64465e-12 3.33218
6
Atoms. Timestep: 390
O -0.010811 5.90219e-13 -1.22068
H 0.726109 -6.68241e-12 -1.90209
H 0.445484 -5.40366e-12 -0.326366
O -0.010811 -5.90221e-13 4.22068
H 0.726109 6.6827e-12 4.90209
H 0.445484 5.4034e-12 3.32637
6
Atoms. Timestep: 400
O -0.00631127 8.05919e-13 -1.22338
H 0.701794 -9.44201e-12 -1.93118
H 0.398378 -7.34015e-12 -0.308256
O -0.00631127 -8.05921e-13 4.22338
H 0.701794 9.44234e-12 4.93118
H 0.398378 7.33984e-12 3.30826
6
Atoms. Timestep: 410
O -0.00360435 1.12142e-12 -1.22535
H 0.688112 -1.34928e-11 -1.94316
H 0.369096 -1.01667e-11 -0.300993
O -0.00360435 -1.12142e-12 4.22535
H 0.688112 1.34932e-11 4.94316
H 0.369096 1.01663e-11 3.30099
6
Atoms. Timestep: 420
O -0.00620829 1.74458e-12 -1.22736
H 0.710677 -2.06619e-11 -1.92173
H 0.387861 -1.56376e-11 -0.309699
O -0.00620829 -1.74458e-12 4.22736
H 0.710677 2.06623e-11 4.92173
H 0.387861 1.56372e-11 3.3097
6
Atoms. Timestep: 430
O -0.0101308 2.80529e-12 -1.22864
H 0.741641 -3.23043e-11 -1.89273
H 0.419156 -2.48748e-11 -0.321941
O -0.0101308 -2.80528e-12 4.22864
H 0.741641 3.23047e-11 4.89273
H 0.419156 2.48743e-11 3.32194
6
Atoms. Timestep: 440
O -0.010038 4.1999e-12 -1.22818
H 0.742981 -4.81573e-11 -1.8867
H 0.416342 -3.71077e-11 -0.323958
O -0.010038 -4.19989e-12 4.22818
H 0.742981 4.81577e-11 4.8867
H 0.416342 3.71071e-11 3.32396
6
Atoms. Timestep: 450
O -0.00644745 5.84736e-12 -1.22617
H 0.71935 -6.84163e-11 -1.90695
H 0.382984 -5.1761e-11 -0.31044
O -0.00644745 -5.84735e-12 4.22617
H 0.71935 6.84168e-11 4.90695
H 0.382984 5.17604e-11 3.31044
6
Atoms. Timestep: 460
O -0.00418107 8.24453e-12 -1.22361
H 0.705606 -9.81381e-11 -1.92704
H 0.360756 -7.30141e-11 -0.292776
O -0.00418107 -8.24452e-12 4.22361
H 0.705606 9.81387e-11 4.92704
H 0.360756 7.30133e-11 3.29278
6
Atoms. Timestep: 470
O -0.00561249 1.24717e-11 -1.221
H 0.715804 -1.47125e-10 -1.92002
H 0.373278 -1.10231e-10 -0.290876
O -0.00561249 -1.24717e-11 4.221
H 0.715804 1.47126e-10 4.92002
H 0.373278 1.1023e-10 3.29088
6
Atoms. Timestep: 480
O -0.00852124 1.95382e-11 -1.21799
H 0.73249 -2.25146e-10 -1.89086
H 0.402759 -1.72667e-10 -0.306074
O -0.00852124 -1.95382e-11 4.21799
H 0.73249 2.25147e-10 4.89086
H 0.402759 1.72666e-10 3.30607
6
Atoms. Timestep: 490
O -0.00975468 2.98371e-11 -1.21399
H 0.736163 -3.38851e-10 -1.87194
H 0.418664 -2.64362e-10 -0.316206
O -0.00975468 -2.98371e-11 4.21399
H 0.736163 3.38852e-10 4.87194
H 0.418664 2.64361e-10 3.31621
6
Atoms. Timestep: 500
O -0.00850351 4.3467e-11 -1.20883
H 0.724643 -4.95527e-10 -1.88368
H 0.410325 -3.86223e-10 -0.304287
O -0.00850351 -4.3467e-11 4.20883
H 0.724643 4.95528e-10 4.88368
H 0.410325 3.86221e-10 3.30429
6
Atoms. Timestep: 510
O -0.0062651 6.15658e-11 -1.20288
H 0.706766 -7.12442e-10 -1.90922
H 0.392673 -5.48982e-10 -0.282179
O -0.0062651 -6.15657e-11 4.20288
H 0.706766 7.12443e-10 4.90922
H 0.392673 5.4898e-10 3.28218
6
Atoms. Timestep: 520
O -0.00508922 8.82165e-11 -1.19665
H 0.693145 -1.03106e-09 -1.91727
H 0.387632 -7.90948e-10 -0.273549
O -0.00508922 -8.82164e-11 4.19665
H 0.693145 1.03106e-09 4.91727
H 0.387632 7.90946e-10 3.27355
6
Atoms. Timestep: 530
O -0.00617261 1.32475e-10 -1.19037
H 0.692819 -1.53703e-09 -1.90098
H 0.405153 -1.19256e-09 -0.282182
O -0.00617261 -1.32475e-10 4.19037
H 0.692819 1.53703e-09 4.90098
H 0.405153 1.19256e-09 3.28218
6
Atoms. Timestep: 540
O -0.00875826 2.06064e-10 -1.18385
H 0.703752 -2.3486e-09 -1.88046
H 0.43526 -1.85484e-09 -0.291834
O -0.00875826 -2.06064e-10 4.18385
H 0.703752 2.3486e-09 4.88046
H 0.43526 1.85484e-09 3.29183
6
Atoms. Timestep: 550
O -0.0103726 3.1545e-10 -1.17673
H 0.708794 -3.55707e-09 -1.87365
H 0.45584 -2.83887e-09 -0.290908
O -0.0103726 -3.1545e-10 4.17673
H 0.708794 3.55708e-09 4.87365
H 0.45584 2.83887e-09 3.29091
6
Atoms. Timestep: 560
O -0.00937226 4.59517e-10 -1.16887
H 0.694172 -5.20994e-09 -1.88088
H 0.454585 -4.1538e-09 -0.28183
O -0.00937226 -4.59517e-10 4.16887
H 0.694172 5.20994e-09 4.88088
H 0.454585 4.1538e-09 3.28183
6
Atoms. Timestep: 570
O -0.00694585 6.4788e-10 -1.16051
H 0.66847 -7.47152e-09 -1.89381
H 0.441775 -5.89916e-09 -0.269659
O -0.00694585 -6.4788e-10 4.16051
H 0.66847 7.47152e-09 4.89381
H 0.441775 5.89915e-09 3.26966
6
Atoms. Timestep: 580
O -0.00569913 9.29488e-10 -1.15203
H 0.651735 -1.08592e-08 -1.90352
H 0.438721 -8.50037e-09 -0.257888
O -0.00569912 -9.29488e-10 4.15203
H 0.651735 1.08592e-08 4.90352
H 0.438721 8.50036e-09 3.25789
6
Atoms. Timestep: 590
O -0.00661275 1.39008e-09 -1.1436
H 0.650732 -1.62226e-08 -1.90114
H 0.454226 -1.27165e-08 -0.253163
O -0.00661275 -1.39008e-09 4.1436
H 0.650732 1.62226e-08 4.90114
H 0.454226 1.27165e-08 3.25316
6
Atoms. Timestep: 600
O -0.00846917 2.12345e-09 -1.1351
H 0.655701 -2.45431e-08 -1.88488
H 0.478722 -1.94251e-08 -0.259874
O -0.00846917 -2.12345e-09 4.1351
H 0.655701 2.45431e-08 4.88488
H 0.478722 1.94251e-08 3.25987
6
Atoms. Timestep: 610
O -0.00981425 3.22668e-09 -1.12634
H 0.656793 -3.69914e-08 -1.86679
H 0.498979 -2.95461e-08 -0.269538
O -0.00981425 -3.22668e-09 4.12634
H 0.656793 3.69914e-08 4.86679
H 0.498979 2.95461e-08 3.26954
6
Atoms. Timestep: 620
O -0.0101226 4.81992e-09 -1.11731
H 0.651387 -5.51909e-08 -1.86195
H 0.509279 -4.41794e-08 -0.267627
O -0.0101226 -4.81992e-09 4.11731
H 0.651387 5.51909e-08 4.86195
H 0.509279 4.41794e-08 3.26763
6
Atoms. Timestep: 630
O -0.00934954 7.0444e-09 -1.10813
H 0.638599 -8.12102e-08 -1.87078
H 0.509797 -6.47116e-08 -0.252581
O -0.00934953 -7.0444e-09 4.10813
H 0.6386 8.12102e-08 4.87078
H 0.509796 6.47116e-08 3.25258
6
Atoms. Timestep: 640
O -0.00778466 1.00931e-08 -1.09886
H 0.619612 -1.17892e-07 -1.88023
H 0.503946 -9.3173e-08 -0.236749
O -0.00778465 -1.00931e-08 4.09886
H 0.619613 1.17892e-07 4.88023
H 0.503945 9.3173e-08 3.23675
6
Atoms. Timestep: 650
O -0.00649601 1.44868e-08 -1.08958
H 0.602641 -1.7127e-07 -1.88129
H 0.500464 -1.3448e-07 -0.228625
O -0.006496 -1.44868e-08 4.08958
H 0.602642 1.7127e-07 4.88129
H 0.500463 1.3448e-07 3.22862
6
Atoms. Timestep: 660
O -0.00667608 2.14196e-08 -1.0804
H 0.59734 -2.5358e-07 -1.87512
H 0.508623 -1.99331e-07 -0.225819
O -0.00667606 -2.14196e-08 4.0804
H 0.597341 2.5358e-07 4.87512
H 0.508622 1.99331e-07 3.22582
6
Atoms. Timestep: 670
O -0.00818915 3.25773e-08 -1.07135
H 0.602714 -3.82117e-07 -1.86442
H 0.527264 -3.03085e-07 -0.225567
O -0.00818912 -3.25773e-08 4.07135
H 0.602716 3.82118e-07 4.86442
H 0.527262 3.03085e-07 3.22557
6
Atoms. Timestep: 680
O -0.00966732 4.9605e-08 -1.06236
H 0.608111 -5.75648e-07 -1.85008
H 0.545329 -4.61845e-07 -0.22888
O -0.00966728 -4.9605e-08 4.06236
H 0.608114 5.75648e-07 4.85008
H 0.545326 4.61845e-07 3.22888
6
Atoms. Timestep: 690
O -0.0101719 7.43125e-08 -1.05338
H 0.606492 -8.57437e-07 -1.83701
H 0.554956 -6.94025e-07 -0.231873
O -0.0101718 -7.43125e-08 4.05338
H 0.606496 8.57438e-07 4.837
H 0.554952 6.94024e-07 3.23187
6
Atoms. Timestep: 700
O -0.00988185 1.09763e-07 -1.04451
H 0.599211 -1.26519e-06 -1.83277
H 0.557634 -1.02971e-06 -0.226052
O -0.00988178 -1.09763e-07 4.04451
H 0.599217 1.26519e-06 4.83277
H 0.557627 1.02971e-06 3.22605
6
Atoms. Timestep: 710
O -0.00916282 1.60558e-07 -1.03582
H 0.588862 -1.85443e-06 -1.83725
H 0.55657 -1.51474e-06 -0.210965
O -0.00916272 -1.60558e-07 4.03582
H 0.588871 1.85443e-06 4.83725
H 0.55656 1.51474e-06 3.21096
6
Atoms. Timestep: 720
O -0.00807608 2.32443e-07 -1.02729
H 0.575919 -2.69751e-06 -1.84155
H 0.552264 -2.21009e-06 -0.196151
O -0.00807596 -2.32443e-07 4.02729
H 0.575933 2.69752e-06 4.84154
H 0.55225 2.21008e-06 3.19614
6
Atoms. Timestep: 730
O -0.00703651 3.36081e-07 -1.01895
H 0.563613 -3.91609e-06 -1.8397
H 0.548069 -3.2257e-06 -0.187768
O -0.00703637 -3.36081e-07 4.01895
H 0.563634 3.91611e-06 4.83969
H 0.548049 3.22569e-06 3.18776
6
Atoms. Timestep: 740
O -0.00686204 4.94478e-07 -1.01086
H 0.558263 -5.74552e-06 -1.83379
H 0.55065 -4.78353e-06 -0.182982
O -0.00686186 -4.94478e-07 4.01086
H 0.558293 5.74555e-06 4.83377
H 0.55062 4.78349e-06 3.18296
6
Atoms. Timestep: 750
O -0.00771533 7.43217e-07 -1.00305
H 0.561184 -8.54503e-06 -1.82627
H 0.561272 -7.22564e-06 -0.179639
O -0.00771513 -7.43218e-07 4.00305
H 0.561229 8.54511e-06 4.82624
H 0.561227 7.22557e-06 3.17961
6
Atoms. Timestep: 760
O -0.00880664 1.12325e-06 -0.995463
H 0.566332 -1.27503e-05 -1.81543
H 0.573445 -1.0969e-05 -0.180433
O -0.00880641 -1.12325e-06 3.99547
H 0.566397 1.27504e-05 4.81539
H 0.573381 1.09689e-05 3.18039
6
Atoms. Timestep: 770
O -0.00948165 1.68683e-06 -0.988145
H 0.568473 -1.89338e-05 -1.80209
H 0.582017 -1.65704e-05 -0.18437
O -0.00948144 -1.68684e-06 3.98815
H 0.568568 1.89342e-05 4.80203
H 0.581924 1.657e-05 3.18431
6
Atoms. Timestep: 780
O -0.00983204 2.52145e-06 -0.981153
H 0.56799 -2.80179e-05 -1.79267
H 0.588061 -2.49401e-05 -0.184421
O -0.00983188 -2.52146e-06 3.98116
H 0.568129 2.80188e-05 4.79258
H 0.587925 2.49394e-05 3.18433
6
Atoms. Timestep: 790
O -0.00996266 3.75408e-06 -0.974482
H 0.565708 -4.13502e-05 -1.79067
H 0.592418 -3.7404e-05 -0.177461
O -0.00996265 -3.75411e-06 3.9745
H 0.565913 4.13521e-05 4.79054
H 0.592217 3.74025e-05 3.17733
6
Atoms. Timestep: 800
O -0.00955053 5.52631e-06 -0.968121
H 0.559267 -6.05398e-05 -1.79178
H 0.592318 -5.55773e-05 -0.168283
O -0.00955084 -5.52636e-06 3.96815
H 0.559571 6.0544e-05 4.7916
H 0.592022 5.5574e-05 3.16809
6
Atoms. Timestep: 810
O -0.00857418 8.03809e-06 -0.962115
H 0.548338 -8.78291e-05 -1.79162
H 0.587752 -8.18422e-05 -0.160786
O -0.0085751 -8.03822e-06 3.96215
H 0.548788 8.78384e-05 4.79136
H 0.587316 8.1835e-05 3.1605
6
Atoms. Timestep: 820
O -0.0076867 1.17042e-05 -0.956489
H 0.537906 -0.000127452 -1.79183
H 0.584103 -0.000120698 -0.153136
O -0.00768868 -1.17045e-05 3.95654
H 0.538571 0.000127472 4.79144
H 0.583459 0.000120682 3.15271
6
Atoms. Timestep: 830
O -0.00737127 1.72257e-05 -0.951199
H 0.531955 -0.000186391 -1.79381
H 0.585056 -0.000179474 -0.144769
O -0.00737512 -1.72263e-05 3.95127
H 0.53294 0.000186435 4.79325
H 0.584105 0.00017944 3.14415
6
Atoms. Timestep: 840
O -0.00738577 2.55014e-05 -0.946234
H 0.528752 -0.000273808 -1.79349
H 0.588504 -0.000268019 -0.140109
O -0.00739282 -2.55029e-05 3.94634
H 0.530206 0.000273905 4.79267
H 0.587105 0.000267946 3.13919
6
Atoms. Timestep: 850
O -0.00744828 3.78091e-05 -0.941645
H 0.525969 -0.000402662 -1.78786
H 0.592304 -0.000400693 -0.141434
O -0.00746058 -3.78124e-05 3.94181
H 0.528101 0.000402871 4.78666
H 0.590259 0.000400537 3.14007
6
Atoms. Timestep: 860
O -0.00778209 5.6452e-05 -0.937428
H 0.525183 -0.000595372 -1.78091
H 0.59843 -0.000602071 -0.144866
O -0.0078029 -5.64595e-05 3.93767
H 0.528306 0.000595824 4.77914
H 0.595446 0.000601739 3.14283
6
Atoms. Timestep: 870
O -0.0085182 8.50512e-05 -0.933529
H 0.527421 -0.000886966 -1.77691
H 0.607943 -0.000910091 -0.147011
O -0.00855286 -8.50681e-05 3.93389
H 0.532012 0.000887953 4.77429
H 0.603576 0.000909372 3.14397
6
Atoms. Timestep: 880
O -0.00920377 0.000128056 -0.929963
H 0.529096 -0.00132183 -1.77388
H 0.617257 -0.00137401 -0.149625
O -0.00926051 -0.000128093 3.93049
H 0.535849 0.00132399 4.77
H 0.610864 0.00137245 3.14508
6
Atoms. Timestep: 890
O -0.00943274 0.000191252 -0.926776
H 0.526755 -0.00195854 -1.76943
H 0.623401 -0.00206131 -0.154297
O -0.00952374 -0.000191335 3.92756
H 0.536664 0.00196326 4.76373
H 0.614058 0.00205791 3.14756
6
Atoms. Timestep: 900
O -0.00941898 0.00028462 -0.92393
H 0.521773 -0.00289496 -1.767
H 0.628427 -0.00308328 -0.158164
O -0.00956298 -0.000284802 3.92508
H 0.536346 0.00290531 4.75866
H 0.614735 0.00307582 3.1482
6
Atoms. Timestep: 910
O -0.00944522 0.000424134 -0.921343
H 0.516081 -0.00428568 -1.77004
H 0.634943 -0.00461418 -0.158925
O -0.00967144 -0.000424532 3.92304
H 0.537638 0.00430857 4.75783
H 0.614758 0.00459761 3.14418
6
Atoms. Timestep: 920
O -0.0092828 0.000629692 -0.919004
H 0.507442 -0.00632745 -1.77577
H 0.641626 -0.00688498 -0.159414
O -0.00963467 -0.00063055 3.9215
H 0.539373 0.00637793 4.75796
H 0.611817 0.00684812 3.13765
6
Atoms. Timestep: 930
O -0.00868083 0.000927154 -0.916902
H 0.493297 -0.00927983 -1.78076
H 0.647164 -0.0102127 -0.163119
O -0.00922147 -0.000928985 3.92055
H 0.54045 0.00939043 4.7549
H 0.603235 0.0101311 3.13114
6
Atoms. Timestep: 940
O -0.00791735 0.00136224 -0.914902
H 0.474872 -0.0135837 -1.78751
H 0.654902 -0.0151278 -0.16947
O -0.00874229 -0.00136613 3.92022
H 0.544504 0.0138257 4.74997
H 0.590144 0.0149475 3.12257
6
Atoms. Timestep: 950
O -0.00730876 0.00201039 -0.912815
H 0.453003 -0.0199402 -1.79947
H 0.66926 -0.0224885 -0.177818
O -0.00856333 -0.00201864 3.92061
H 0.556119 0.0204712 4.74477
H 0.57354 0.0220884 3.10882
6
Atoms. Timestep: 960
O -0.00660505 0.00296636 -0.91049
H 0.423642 -0.0292233 -1.81457
H 0.690659 -0.033455 -0.192335
O -0.00849896 -0.00298372 3.92191
H 0.576088 0.0303828 4.73474
H 0.549342 0.032571 3.09084
6
Atoms. Timestep: 970
O -0.00537274 0.00434624 -0.907726
H 0.380931 -0.0424858 -1.82975
H 0.718564 -0.0495765 -0.218893
O -0.00820161 -0.00438233 3.92439
H 0.6048 0.0449949 4.71369
H 0.511158 0.0476403 3.0704
6
Atoms. Timestep: 980
O -0.00350256 0.00633119 -0.904139
H 0.320231 -0.0612323 -1.84701
H 0.756555 -0.0732649 -0.261
O -0.00768819 -0.00640493 3.92833
H 0.646924 0.0666341 4.67891
H 0.453909 0.0690335 3.04519
6
Atoms. Timestep: 990
O -0.000725712 0.00915532 -0.899286
H 0.234425 -0.0870905 -1.86749
H 0.808359 -0.107895 -0.323537
O -0.00683334 -0.00930048 3.93408
H 0.707299 0.0986522 4.62565
H 0.369895 0.0986375 3.01309
6
Atoms. Timestep: 1000
O 0.00402511 0.012906 -0.893008
H 0.112386 -0.119825 -1.882
H 0.869123 -0.15632 -0.41649
O -0.00463764 -0.0131692 3.94187
H 0.782564 0.144066 4.54159
H 0.245649 0.136257 2.98137
6
Atoms. Timestep: 1010
O 0.012072 0.0172364 -0.88574
H -0.0520749 -0.154557 -1.87246
H 0.924687 -0.218265 -0.548284
O 0.000322752 -0.0176416 3.95114
H 0.859606 0.203196 4.41424
H 0.071052 0.176055 2.96845
6
Atoms. Timestep: 1020
O 0.0237243 0.0212683 -0.878492
H -0.248638 -0.180783 -1.82181
H 0.959324 -0.288671 -0.71642
O 0.00864933 -0.0217205 3.96045
H 0.920785 0.271715 4.24181
H -0.145305 0.204918 2.99564
6
Atoms. Timestep: 1030
O 0.0378288 0.0237742 -0.872271
H -0.44928 -0.185555 -1.72388
H 0.96123 -0.357411 -0.908286
O 0.0195903 -0.0239724 3.96827
H 0.948575 0.339238 4.03479
H -0.371883 0.206873 3.07365
6
Atoms. Timestep: 1040
O 0.0526439 0.0235372 -0.867429
H -0.62177 -0.160159 -1.58849
H 0.923161 -0.409986 -1.10805
O 0.0317518 -0.0230393 3.97397
H 0.929863 0.389815 3.81129
H -0.570785 0.172427 3.1943
6
Atoms. Timestep: 1050
O 0.0668338 0.0198005 -0.863702
H -0.74735 -0.10432 -1.43605
H 0.845884 -0.431914 -1.30084
O 0.0439329 -0.0182159 3.97754
H 0.863191 0.407982 3.59175
H -0.719817 0.1031 3.33823
6
Atoms. Timestep: 1060
O 0.0796551 0.0125151 -0.86073
H -0.825989 -0.0237162 -1.28481
H 0.740809 -0.415183 -1.47563
O 0.055308 -0.00967994 3.97907
H 0.760567 0.386343 3.39253
H -0.817525 0.0075565 3.48965
6
Atoms. Timestep: 1070
O 0.0906473 0.00211498 -0.858613
H -0.865938 0.0747751 -1.14226
H 0.623754 -0.359043 -1.62401
O 0.0652883 0.0017928 3.97822
H 0.638407 0.326086 3.22501
H -0.871237 -0.103842 3.64291
6
Atoms. Timestep: 1080
O 0.0991325 -0.0105663 -0.858031
H -0.871704 0.18373 -1.00828
H 0.51013 -0.269161 -1.73509
O 0.0731011 0.0149949 3.97433
H 0.51204 0.235436 3.10027
H -0.884162 -0.220296 3.79712
6
Atoms. Timestep: 1090
O 0.104147 -0.0240678 -0.859343
H -0.844539 0.294339 -0.884081
H 0.416167 -0.160195 -1.80139
O 0.0777304 0.0282675 3.96742
H 0.398153 0.130206 3.02375
H -0.85655 -0.331007 3.94626
6
Atoms. Timestep: 1100
O 0.105111 -0.0367733 -0.86181
H -0.789519 0.399851 -0.774552
H 0.355529 -0.0512436 -1.82937
O 0.0786442 0.0401625 3.95874
H 0.312203 0.0276773 2.9866
H -0.794786 -0.430079 4.0789
6
Atoms. Timestep: 1110
O 0.102153 -0.047664 -0.864327
H -0.714715 0.498281 -0.683212
H 0.333742 0.043807 -1.83295
O 0.0760511 0.0500694 3.94974
H 0.262478 -0.0615388 2.97321
H -0.709965 -0.518728 4.1872
6
Atoms. Timestep: 1120
O 0.0957604 -0.0561126 -0.8664
H -0.625221 0.588268 -0.609642
H 0.348112 0.116968 -1.82033
O 0.0703682 0.05772 3.94111
H 0.249454 -0.13216 2.97377
H -0.609142 -0.598589 4.27043
6
Atoms. Timestep: 1130
O 0.0867341 -0.0614572 -0.867911
H -0.524502 0.665146 -0.551707
H 0.389907 0.162782 -1.79525
O 0.0621649 0.0626148 3.93295
H 0.267306 -0.180063 2.98343
H -0.49604 -0.666239 4.33129
6
Atoms. Timestep: 1140
O 0.0764069 -0.0633731 -0.868544
H -0.420447 0.724933 -0.507415
H 0.446786 0.179956 -1.76422
O 0.0525589 0.0644054 3.92537
H 0.304968 -0.203596 2.99596
H -0.378256 -0.717678 4.37371
6
Atoms. Timestep: 1150
O 0.0663981 -0.0622464 -0.867875
H -0.324605 0.769169 -0.475585
H 0.505727 0.172651 -1.73461
O 0.0430593 0.0633505 3.91848
H 0.348584 -0.205531 3.0051
H -0.267016 -0.753813 4.40191
6
Atoms. Timestep: 1160
O 0.0581257 -0.0588325 -0.865608
H -0.246453 0.802205 -0.457198
H 0.554809 0.148096 -1.70975
O 0.0350497 0.0600712 3.91228
H 0.38448 -0.191851 3.00849
H -0.171719 -0.778111 4.41772
6
Atoms. Timestep: 1170
O 0.0525295 -0.0538945 -0.861438
H -0.191576 0.827666 -0.455298
H 0.585646 0.114542 -1.6912
O 0.029514 0.0552854 3.90685
H 0.402159 -0.170149 3.0057
H -0.0984257 -0.794136 4.42009
6
Atoms. Timestep: 1180
O 0.0500034 -0.0481663 -0.854999
H -0.162945 0.849935 -0.47199
H 0.595675 0.0791408 -1.68232
O 0.0269492 0.0498271 3.90233
H 0.396368 -0.147544 2.99461
H -0.0504914 -0.807891 4.40852
6
Atoms. Timestep: 1190
O 0.0505999 -0.042091 -0.846087
H -0.161585 0.873246 -0.506973
H 0.585538 0.0445985 -1.68598
O 0.0274728 0.0443348 3.89871
H 0.365413 -0.127089 2.97336
H -0.0285387 -0.82637 4.38438
6
Atoms. Timestep: 1200
O 0.0542681 -0.0353553 -0.834835
H -0.186575 0.895737 -0.558809
H 0.55519 0.00770273 -1.70019
O 0.0310335 0.0386951 3.8957
H 0.308673 -0.105472 2.94455
H -0.031197 -0.850977 4.34843
6
Atoms. Timestep: 1210
O 0.0606784 -0.0269937 -0.821779
H -0.234268 0.909016 -0.624105
H 0.505645 -0.0385989 -1.71818
O 0.0372882 0.0320891 3.89273
H 0.228856 -0.0745471 2.9154
H -0.0551615 -0.876744 4.30082
6
Atoms. Timestep: 1220
O 0.0689025 -0.0162089 -0.807802
H -0.297639 0.906993 -0.695925
H 0.443157 -0.100936 -1.73126
O 0.0452674 0.0237663 3.8891
H 0.1364 -0.0261501 2.89362
H -0.0940264 -0.899858 4.24326
6
Atoms. Timestep: 1230
O 0.0774763 -0.00298817 -0.793862
H -0.367212 0.891366 -0.767054
H 0.379179 -0.181163 -1.73062
O 0.0534174 0.0136218 3.88437
H 0.0492457 0.0426231 2.884
H -0.138761 -0.921604 4.17706
6
Atoms. Timestep: 1240
O 0.0847372 0.0120163 -0.780612
H -0.432101 0.86718 -0.83477
H 0.326598 -0.273896 -1.70895
O 0.060049 0.00203855 3.87869
H -0.0128987 0.127173 2.88756
H -0.179649 -0.943536 4.09952
6
Atoms. Timestep: 1250
O 0.0892549 0.0278116 -0.768105
H -0.481944 0.838997 -0.901397
H 0.29567 -0.368133 -1.66412
O 0.063836 -0.0104673 3.87255
H -0.0353743 0.217884 2.90206
H -0.208215 -0.964036 4.00571
6
Atoms. Timestep: 1260
O 0.0902988 0.0433281 -0.755776
H -0.511126 0.81186 -0.971896
H 0.291465 -0.452684 -1.60089
O 0.0641483 -0.0234045 3.86634
H -0.0124142 0.305663 2.92392
H -0.219312 -0.981068 3.89401
6
Atoms. Timestep: 1270
O 0.0878824 0.0577972 -0.742888
H -0.519237 0.789585 -1.05028
H 0.313952 -0.52058 -1.52686
O 0.0610654 -0.0364796 3.85982
H 0.0528477 0.385771 2.9525
H -0.211665 -0.99313 3.76872
6
Atoms. Timestep: 1280
O 0.0823942 0.0709781 -0.729185
H -0.506519 0.771104 -1.13517
H 0.359448 -0.569089 -1.44687
O 0.0553047 -0.0496927 3.85205
H 0.149026 0.456651 2.993
H -0.187515 -0.996509 3.63896
6
Atoms. Timestep: 1290
O 0.0745517 0.0829274 -0.715098
H -0.473947 0.752371 -1.21867
H 0.421149 -0.598023 -1.36193
O 0.0483503 -0.0630473 3.84199
H 0.256524 0.516865 3.05177
H -0.15443 -0.986751 3.51475
6
Atoms. Timestep: 1300
O 0.0656011 0.0936544 -0.701218
H -0.427992 0.731703 -1.29212
H 0.489794 -0.609493 -1.27276
O 0.0421926 -0.0763088 3.82962
H 0.352506 0.565595 3.12678
H -0.125211 -0.963114 3.40007
6
Atoms. Timestep: 1310
O 0.0570021 0.103143 -0.687735
H -0.379474 0.709908 -1.35171
H 0.55628 -0.607964 -1.18263
O 0.0384338 -0.0893395 3.81603
H 0.420841 0.605483 3.20662
H -0.112408 -0.92652 3.29144
6
Atoms. Timestep: 1320
O 0.0498586 0.11152 -0.67451
H -0.337692 0.686414 -1.3967
H 0.614153 -0.59849 -1.09664
O 0.0377784 -0.102408 3.8022
H 0.456337 0.641794 3.28059
H -0.123774 -0.874353 3.18603
6
Atoms. Timestep: 1330
O 0.0447767 0.118956 -0.661279
H -0.308521 0.659274 -1.42677
H 0.659944 -0.584701 -1.01951
O 0.0402104 -0.115796 3.788
H 0.461267 0.678153 3.34675
H -0.161607 -0.802871 3.08815
6
Atoms. Timestep: 1340
O 0.0419379 0.125506 -0.647588
H -0.295468 0.628223 -1.44381
H 0.693236 -0.569109 -0.954702
O 0.0451105 -0.129238 3.77247
H 0.442921 0.714387 3.41031
H -0.222323 -0.714262 3.00613
6
Atoms. Timestep: 1350
O 0.041068 0.131213 -0.632899
H -0.299324 0.594474 -1.45142
H 0.716839 -0.55419 -0.903637
O 0.0512126 -0.141935 3.75467
H 0.413331 0.747492 3.47669
H -0.295526 -0.617606 2.94554
6
Atoms. Timestep: 1360
O 0.0415346 0.136196 -0.616982
H -0.317416 0.558326 -1.45108
H 0.734683 -0.541345 -0.864757
O 0.0568511 -0.152929 3.73447
H 0.386057 0.772647 3.54597
H -0.364906 -0.524041 2.90509
6
Atoms. Timestep: 1370
O 0.0426498 0.140518 -0.599941
H -0.344883 0.519477 -1.44216
H 0.748989 -0.529525 -0.834096
O 0.0605401 -0.16145 3.71266
H 0.371282 0.784821 3.61151
H -0.41322 -0.442547 2.87561
6
Atoms. Timestep: 1380
O 0.0438705 0.144133 -0.581819
H -0.377377 0.4787 -1.42566
H 0.760782 -0.516868 -0.807843
O 0.0614436 -0.167229 3.6906
H 0.373996 0.782818 3.66356
H -0.428949 -0.378081 2.84331
6
Atoms. Timestep: 1390
O 0.0447988 0.147009 -0.562421
H -0.412291 0.437529 -1.40399
H 0.77194 -0.503076 -0.784448
O 0.059344 -0.170495 3.66916
H 0.395433 0.770596 3.69597
H -0.40804 -0.332275 2.79825
6
Atoms. Timestep: 1400
O 0.0452278 0.149066 -0.5415