LAMMPS (16 Mar 2018)
# some global params
units real
boundary p p p #all periodic
atom_style full #bonds, bends, torsions, etc
timestep 1.000000 # femtoseconds (1e-15 s)

# the atoms file
#read_restart water_pair.restart
read_data water_pair.xyz
  orthogonal box = (-5 -5 -5) to (5 5 5)
  1 by 1 by 1 MPI processor grid
  reading atoms ...
  6 atoms
  scanning bonds ...
  2 = max bonds/atom
  scanning angles ...
  1 = max angles/atom
  reading bonds ...
  4 bonds
  reading angles ...
  2 angles
  2 = max # of 1-2 neighbors
  1 = max # of 1-3 neighbors
  1 = max # of 1-4 neighbors
  2 = max # of special neighbors
#replicate 10 10 10

# methods for potential/force calculations
kspace_style ewald/disp 1.0e-6
pair_style lj/cut/coul/long 10

# pair_characterization eps sigma cut_1 cut_2
pair_coeff 2 2 0 0.898 2.7 #H-H sigma = 2*r_min
pair_coeff 1 2 0 0.4 2.7 #O-H Mixing rules were RMS
pair_coeff 1 1 0.1521 3.166 9.45 #O-O  Parameters from Jorgensen, cutoff is 3*sig

bond_style harmonic
bond_coeff 1 669.13 1.0

angle_style harmonic
angle_coeff 1 0 109.5

#fix ID group-ID restrain angle atom1 atom2 atom3 Kstart Kstop theta
fix holdit1 all restrain angle 2 1 3 100 2000 109.5
fix holdit2 all restrain angle 5 4 6 100 2000 109.5

# velocity all create 298 3

dump Dump all xyz 10 lammps_traj.xyz
dump_modify Dump sort id
dump_modify Dump element  O H
dump_modify Dump pbc yes

dump Dumplammps all atom 100 dump.lammps

restart 10 water_pair.1.restart water_pair.restart

thermo_style one #print to terminal
thermo 10

#velocity all create 100 12345 rot yes mom yes dist gaussian
fix 2 all nvt temp 2.98 2.98 1000 #iso 10 10 1000 random_number atoms_assigned ensemble thermostat start_temp end_temp gradient_step
#fix 3 all rigid/nvt molecule temp 293 293 100

run 20000
EwaldDisp initialization ...
  G vector = 0.311077   accuracy = 0.000332064
Neighbor list info ...
  update every 1 steps, delay 10 steps, check yes
  max neighbors/atom: 2000, page size: 100000
  master list distance cutoff = 12
  ghost atom cutoff = 12
  binsize = 6, bins = 2 2 2
  2 neighbor lists, perpetual/occasional/extra = 2 0 0
  (1) pair lj/cut/coul/long, perpetual
      attributes: half, newton on
      pair build: half/bin/newton
      stencil: half/bin/3d/newton
      bin: standard
  (2) pair lj/cut/coul/long, perpetual, copy from (1)
      attributes: half, newton on
      pair build: copy
      stencil: none
      bin: none
  vectors: nbox = 4, nkvec = 128
Per MPI rank memory allocation (min/avg/max) = 15.36 | 15.36 | 15.36 Mbytes
Step Temp E_pair E_mol TotEng Press 
       0            0    4.9417819            0    4.9417819    307.88528 
      10    1258.0314    3.6373158   0.33501721    22.722096    2443.5007 
      20    797.28744    3.5380327    1.3652656     16.78611   -2078.0023 
      30    356.08435    4.0817949   0.65388737    10.042781    -1505.836 
      40    1204.5199     2.884956    2.3498689     23.18705    4452.3929 
      50    195.32341     2.435704   0.23734624    5.5841601   -942.56968 
      60    851.74715    2.6829712   0.29753166    15.674985   -639.27887 
      70    658.77543    2.4020545  0.094907354    12.315384   -198.64993 
      80    262.80572    1.7892336   0.00676683    5.7128701      387.389 
      90    912.76411    1.6936154   0.61128823    15.908786     2464.743 
     100    102.28839    1.8669842    0.7588973    4.1503928   -1990.9524 
     110    795.10368    1.5214797   0.11169229    13.483437   -188.36159 
     120    238.72254    1.3462861  0.016607643    4.9208265    471.58331 
     130    458.07219    1.3299813   0.34193947    8.4990518    1693.3056 
     140    426.99535    1.3191923   0.10837344    7.7915259    -454.9267 
     150    233.79678    1.2379603   0.58709722    5.3095765   -1656.8794 
     160    480.77567    1.1148954   0.15739307    8.4377932    1265.0285 
     170    99.440658    1.1201992   0.17728101    2.7795488    1071.2245 
     180    479.12751     1.105021  0.021586996    8.2675485    31.107919 
     190    51.205054    1.1103009   0.58893253    2.4623962   -1789.9527 
     200    421.41916    1.0269272   0.11861968    7.4263993    1102.1458 
     210    33.077772     1.031502   0.18385316    1.7083479    1043.2702 
     220     370.2603    1.0401654 0.0089455349    6.5674891    73.098762 
     230    24.438706    1.0670303   0.43970235    1.8709684   -1555.1999 
     240    318.07414    1.0135221  0.053193018    5.8073081     766.2124 
     250    19.649188    1.0178896     0.186534     1.497276    1040.5116 
     260    274.42767    1.0383927   0.00110584    5.1295824    160.88357 
     270    22.938343    1.0710907   0.31892113    1.7318861   -1317.1398 
     280    223.49219    1.0352454  0.011301449    4.3774856    409.57111 
     290    41.167117    1.0362913   0.18256226    1.8324104    1044.5551 
     300    163.18313    1.0633228 0.0018187964    3.4972311     223.5715 
     310    79.520221    1.0896936   0.18890268    2.4637696   -964.51254 
     320    90.324934    1.0680495  0.002428329    2.4166852   -34.932375 
     330    123.87102    1.0584159   0.17125297    3.0758487    1070.3855 
     340     28.24327    1.0946707 0.0050982932    1.5207081    204.11842 
     350    149.14861    1.1103127  0.076255794    3.4094869   -537.26223 
     360    8.5125123    1.0939501  0.017929192    1.2387502   -295.34151 
     370    118.85472    1.0746341  0.093644893    2.9396957    815.99794 
     380    48.318545    1.1104532  0.013999186    1.8445944    326.61407 
     390    46.231882    1.1361094  0.039463992    1.8646157   -422.59599 
     400    105.25828    1.1099524 0.0024215744    2.6811487   -22.579133 
     410   0.53275482    1.0860532  0.028130983    1.1221244     411.4974 
     420    97.664777    1.1042975 0.0074362727    2.5673346      282.406 
     430    38.250603    1.1406569  0.026358536    1.7371044   -341.87619 
     440    26.793572    1.1301581 0.00027551856    1.5297664    31.856066 
     450    88.474813     1.094526   0.06420551    2.4773645    672.71733 
     460    9.2624946    1.0974653 0.00069345049    1.2362075    76.456137 
     470     48.29065    1.1189671  0.052518026    1.8912114   -494.62153 
     480    67.909848    1.1173325 0.0013348067    2.1307991    -16.47328 
     490    1.3433137    1.1008287  0.075278337    1.1961279    662.62153 
     500    56.389644    1.0965059    0.0304605    1.9674005    465.48542 
     510    51.241527    1.1052147  0.033502862    1.9024238   -382.73525 
     520    2.8788306    1.0953021  0.028933923    1.1671422   -385.05815 
     530    50.829852    1.0730628  0.026036468    1.8566699    430.62269 
     540    47.510839    1.0775461  0.033910529    1.8195605    482.26318 
     550    2.5270656    1.0949442 0.0041928357    1.1368005    -132.9329 
     560    40.033521    1.0850092 0.0027120155    1.6843828   -79.721481 
     570    49.373421    1.0585374  0.020905929    1.8153073    388.77933 
     580    6.2216908    1.0546172 0.0061139691    1.1534596    204.44123 
     590    22.802578    1.0684559  0.021067147    1.4293739   -312.07764 
     600    50.172149    1.0657062 0.0074307448    1.8209052   -154.12064 
     610    18.772773    1.0476317  0.034805727    1.3622278    467.77794 
     620    5.9743511     1.043172  0.043958773    1.1761728    513.21201 
     630    38.013589    1.0535728 0.0014489043    1.6215781   -48.550783 
     640    36.457698    1.0519934  0.014507239     1.609868   -243.62222 
     650     6.797551    1.0346364 0.0025764177    1.1385239    139.14878 
     660    12.062715    1.0292563  0.010112815    1.2191524    260.09533 
     670    37.443827    1.0409363 0.0029866062    1.6019876   -88.398145 
     680    27.923449    1.0428704 0.0040095988    1.4630525   -114.48479 
     690    5.0901925    1.0284735  0.021852674    1.1261907    367.24113 
     700      10.3128    1.0226747  0.041414792     1.217792    501.31367 
     710    31.456905    1.0334359 6.4117042e-05    1.5023353    25.597003 
     720    27.452086    1.0375152  0.013145879    1.4598084   -236.80288 
     730    8.0676483    1.0254225 0.00050976825    1.1461729    73.331835 
     740    3.6861952    1.0198254 0.0087430549    1.0835077    237.97232 
     750    20.245964     1.030457  0.001620316    1.3338241    -65.37668 
     760     28.07053    1.0357222 0.0068967244    1.4609836   -162.13882 
     770    17.777679    1.0254575 0.0095654515    1.2999824    257.34776 
     780    2.9897109    1.0200637  0.039362751    1.1039852    484.44013 
     790    4.8695211    1.0301913 0.0031973642    1.1059643    151.10859 
     800    16.626377    1.0369378 0.0026168439     1.287355   -94.362735 
     810    24.176228     1.028521 0.0027603636    1.3916051    154.83265 
     820    16.856096    1.0230197  0.013433761    1.2876776    300.02011 
     830    5.8405796    1.0328386 0.00081734355    1.1207042   -47.080556 
     840   0.71983221    1.0407335  0.017397909    1.0688599   -296.58901 
     850    7.3043422    1.0332843 0.0001248647    1.1422734   0.15084797 
     860    15.698999    1.0265821  0.013109877    1.2736706    295.95598 
     870    19.700237    1.0342811 0.0013578763    1.3292523    115.66817 
     880    14.388586    1.0419527 0.0019208334    1.2583218   -77.158832 
     890    6.7066415     1.035783 0.0045805218    1.1403197    179.44772 
     900   0.71251906    1.0288514  0.032031347    1.0715021    437.27169 
     910    1.8814666    1.0346631 0.0081736316    1.0708783    229.98111 
     920    6.6658339    1.0408416 0.00057915604    1.1407687   -35.497022 
     930    13.207017    1.0321097 0.0017408615    1.2306886    122.81098 
     940    16.093784    1.0173771   0.01678971    1.2740294     331.2168 
     950     16.31448    1.0058404 0.0014417844     1.250434    115.38327 
     960    13.856138   0.97683181 0.0075466845    1.1908911    -182.0991 
     970    14.156319    0.8948801 0.0015156244    1.1073822   -69.684683 
     980    20.337755   0.72872444  0.002933623     1.034773    144.94171 
     990    39.060362   0.41969977 0.0011943992    1.0030518    -25.48445 
    1000     72.90155  -0.12028782  0.024328129   0.99056867   -316.57964 
    1010    120.56806   -0.8760816  0.021201193   0.94207203   -241.24368 
    1020    163.37016   -1.6086867  0.011916645   0.83810703   -21.366022 
    1030    181.18729   -2.0476375  0.014756311   0.66754319   -113.36753 
    1040    174.22366   -2.1906475  0.030234447   0.43622518   -319.85028 
    1050    160.06583   -2.2274013  0.014530124   0.17275796   -200.66004 
    1060    146.82793   -2.2864638 0.0018483029 -0.096284592    48.304158 
    1070    133.52527   -2.3569021 0.00036456902  -0.36647019   -15.277686 
    1080    115.29987   -2.3447597  0.011781288  -0.61454338   -232.02295 
    1090    92.810973   -2.2010145 0.0056438701  -0.81211122   -168.77742 
    1100    70.330909   -2.0059739 0.00087046976  -0.95688808    56.290303 
    1110    53.602545    -1.871912 0.0015635099   -1.0714535    32.279924 
    1120    43.822214   -1.8233025 0.0049848443   -1.1651892   -163.90382 
    1130    38.435286   -1.8093695 0.0026439405   -1.2338841   -142.34082 
    1140    33.003888   -1.7746022 0.0011739609   -1.2815366    50.864824 
    1150     25.26275   -1.6996285 0.0016726691   -1.3214385    47.053933 
    1160    16.360511    -1.597309 0.0019386085   -1.3515325   -128.88993 
    1170    9.3920132   -1.5039938 0.0014695238   -1.3625452   -125.65011 
    1180    6.9923369   -1.4689674 0.0015248454   -1.3632285    49.183132 
    1190    10.265967   -1.5291058 0.0022753071    -1.373826    55.828221 
    1200    18.697711   -1.6825468 0.0017562394   -1.4021189   -120.65476 
    1210    29.428147   -1.8822703 0.0031899389   -1.4404818   -156.07334 
    1220    38.349279   -2.0584975 0.0013619371    -1.485576   -12.187322 
    1230    41.700663   -2.1638961 0.0021787157   -1.5402086    9.0894661 
    1240    40.487258   -2.2061337  0.002857257   -1.5998523   -139.47106 
    1250    39.140425     -2.23917 0.0041647901   -1.6516544   -173.32218 
    1260    41.652132   -2.3231942 0.0016397584    -1.700769   -38.296451 
    1270    47.585763   -2.4732862 0.0015330863   -1.7625326   -6.9463039 
    1280    53.320902   -2.6366993 0.0026804644   -1.8393215   -144.43589 
    1290    54.268996   -2.7280554 0.0050674266   -1.9141602   -192.47039 
    1300    49.608645   -2.7178811 0.0012512398   -1.9772601    -71.08903 
    1310    42.305153   -2.6619752 0.00029907505    -2.031158   -20.093597 
    1320    36.861502   -2.6302982 0.0016030588   -2.0793095   -132.37648 
    1330    34.947385   -2.6432348 0.0039088964   -2.1184683   -192.70683 
    1340      35.3451   -2.6779812 0.00060102967   -2.1505951   -102.85077 
    1350    34.634045   -2.6977169 0.0003271878   -2.1812021   -60.984638 
    1360     30.94899   -2.6750599 0.0034754776   -2.2103191    -168.0306 
    1370    25.491598   -2.6188838 0.0064994605   -2.2324563   -238.29043 
    1380    21.961089   -2.5804625 0.0025298509   -2.2506235   -165.18955 
    1390      22.5984   -2.6114512 0.0021686055   -2.2724749   -125.18494 
    1400    26.988042   -2.7119679 0.0077608832   -2.3019759   -231.69064 
    1410    31.711707   -2.8257649  0.014109329   -2.3390227   -318.41932 
    1420    33.918747   -2.8982471 0.0096597657   -2.3830606   -259.96571 
    1430    33.862211   -2.9405132  0.007727871   -2.4281013   -204.30363 
    1440    35.776054   -3.0164097  0.012544421   -2.4706572   -275.99957 
    1450    42.772199   -3.1715618  0.018119353   -2.5159634   -340.18534 
    1460     53.72846   -3.3886255  0.013883322   -2.5739705   -273.33687 
    1470    63.243191   -3.6020167  0.010882153   -2.6485549   -198.60936 
    1480    68.582527   -3.7757928   0.01280727    -2.740828   -236.00427 
    1490    73.779251   -3.9653403  0.016399838   -2.8493308   -277.37245 
    1500    85.058096   -4.2574386  0.015018777   -2.9747096   -213.09995 
    1510    101.33881    -4.647403  0.015810049   -3.1212342   -148.12222 
    1520    116.45435   -5.0446274  0.021020721   -3.2879653   -189.06368 
    1530    132.92679   -5.4847407   0.03438996   -3.4692032   -240.28435 
    1540    161.64633   -6.1467207  0.054838683   -3.6826971   -189.34407 
    1550    187.90029   -6.8469134  0.089485692   -3.9569523   -62.870138 
    1560    169.07627   -6.9362406   0.15278556   -4.2635338    181.43255 
    1570    100.61203   -6.3028745   0.29129739   -4.5120504    678.06268 
    1580    19.747921   -5.2860862   0.37813747   -4.6136247    1186.7283 
    1590    64.387671   -5.9360593   0.29600826   -4.6804139    925.39964 
    1600    113.47995   -6.6971405    0.1573417    -4.848488    359.72887 
    1610    118.20075   -6.9321893   0.11382287   -5.0566964   -41.606167 
    1620    95.727789   -6.7864032   0.10649542    -5.253176    -225.9208 
    1630    59.101443   -6.3493954  0.073590727   -5.3949538    -258.8703 
    1640    33.835679   -6.0294886  0.046484717   -5.4787152   -270.59177 
    1650    21.469685   -5.8933234  0.049326989   -5.5240112   -308.87447 
    1660    15.662677   -5.8419743  0.062415409   -5.5461215    -351.1975 
    1670    16.477103    -5.862001    0.0555456   -5.5608798   -370.44829 
    1680    19.697989   -5.9197612  0.044882154   -5.5812992   -366.85695 
    1690    21.217433   -5.9748026  0.049576379   -5.6090005   -360.21292 
    1700    27.415113   -6.1143631  0.060289203   -5.6454776   -349.18572 
    1710    43.513609   -6.4140896  0.063340284   -5.7022204   -298.50388 
    1720    62.190505   -6.7911322  0.076217891   -5.7880239   -194.25373 
    1730    73.990115   -7.1196369   0.12293775   -5.8939467   -56.915262 
    1740    65.589228   -7.1560858   0.18171832   -5.9968223    137.48672 
    1750    34.029876   -6.7776186   0.20850572     -6.06193    416.85243 
    1760    21.982811    -6.656359   0.23526717   -6.0934589     585.9237 
    1770    24.467899   -6.7212563   0.23164593   -6.1249396    489.65599 
    1780    32.509772   -6.8318133   0.18452397   -6.1627621     214.3495 
    1790    41.354054   -6.9589449   0.13256944   -6.2100325   -13.179556 
    1800    43.442197   -7.0253275   0.11162666   -6.2662361   -115.39389 
    1810    33.774501   -6.9406252   0.11444411   -6.3228042    -180.6997 
    1820    17.662838   -6.7243807  0.098376891    -6.362756   -250.73041 
    1830    13.352316   -6.6612631  0.079828083   -6.3824314   -282.28548 
    1840    17.551019   -6.7425661   0.08379052   -6.3971943   -273.11248 
    1850    16.861267   -6.7623609  0.095386885   -6.4156728   -292.91217 
    1860    14.785215   -6.7444953  0.087219638   -6.4369161   -320.96683 
    1870    15.768204   -6.7723082  0.077306472   -6.4599917   -251.74567 
    1880    21.142322   -6.8959924  0.092436691   -6.4884495    -111.0863 
    1890    31.367151   -7.1276252   0.13303624   -6.5270913   -21.991386 
    1900     30.83045   -7.1876682    0.1629955   -6.5651742    49.138111 
    1910    16.932709   -7.0148165   0.18068931   -6.5817613    196.27275 
    1920    13.914837    -7.004517   0.20700265   -6.5901269    299.83091 
    1930    19.322771   -7.1093226   0.21068451   -6.6106505    221.17303 
    1940    18.627519    -7.092649    0.1719912   -6.6430323    68.775309 
    1950    13.684966   -6.9998012   0.12789519   -6.6679446    16.218256 
    1960    17.288525   -7.0608635   0.11747917   -6.6857153   -1.4508022 
    1970    19.264176    -7.111167   0.11966148   -6.7043913   -100.41016 
    1980    12.133625   -7.0104682   0.11582974   -6.7137983   -215.92436 
    1990    8.2558397   -6.9547782   0.11632017   -6.7154126   -240.77083 
    2000    11.418219   -7.0159717   0.12237994   -6.7234141      -221.75 
    2010    15.298299   -7.0893809   0.11657697   -6.7447973   -233.08226 
    2020    13.274844   -7.0763965   0.10149147   -6.7770561   -199.65746 
    2030    7.7225136   -7.0112504  0.098478108   -6.7976756   -76.325086 
    2040    8.7545594   -7.0473786   0.11685694   -6.8000433    6.1626582 
    2050    14.315504   -7.1545895   0.14025388   -6.8009766   -17.882232 
    2060     13.16111   -7.1712264   0.16866479   -6.8064078   -14.350616 
    2070    7.6569574    -7.118002   0.19044288   -6.8134394    88.872747 
    2080    8.6331712   -7.1402802   0.18633573   -6.8252752    151.17748 
    2090    14.950797   -7.2306217   0.15848126    -6.849313    88.617138 
    2100    11.373412   -7.1738348    0.1373838    -6.866941    13.824967 
    2110    4.9462165   -7.0748276   0.13371178   -6.8673972   -31.223422 
    2120    6.7397589   -7.0970012   0.12959508   -6.8669564   -102.04023 
    2130    9.8088351   -7.1429274   0.12182999    -6.874906   -162.37072 
    2140    7.8299215   -7.1262919   0.12560824   -6.8839861   -139.18051 
    2150    5.0552197   -7.0963403   0.13396572   -6.8870313   -96.406185 
    2160    8.6763149   -7.1520262   0.13137778   -6.8913362   -135.86079 
    2170    12.425025   -7.2189024   0.13005521    -6.903664   -181.10922 
    2180    8.1063165   -7.1705729   0.13021456   -6.9195414   -116.12077 
    2190    3.1959578   -7.1066979   0.12681245   -6.9322527   -8.6609399 
    2200    3.9384502   -7.1199923   0.12203747    -6.939256    29.911862 
    2210    7.4294505   -7.1863487   0.13978604   -6.9358338    12.706951 
    2220     7.338875   -7.2120623     0.172284   -6.9303993    2.4575088 
    2230    4.2776539   -7.1744332   0.17897021   -6.9317086   -1.0579645 
    2240    7.7300687   -7.2168127    0.1591018   -6.9425015   -11.527723 
    2250    10.397187   -7.2532264   0.13881439   -6.9594518  -0.27613811 
    2260    5.7244715   -7.1841017    0.1311554   -6.9676285   -9.9237513 
    2270    1.6717369   -7.1215727   0.12962851   -6.9670285   -89.339941 
    2280    3.0548997   -7.1397872   0.12801833   -6.9662385   -150.70476 
    2290    6.3228164   -7.1929108   0.13072631    -6.967949   -112.49349 
    2300    4.8616754   -7.1815015   0.13750704   -6.9715358   -52.378636 
    2310    3.3897671   -7.1650341   0.14033971   -6.9741732   -70.726472 
    2320    6.9712382   -7.2260518    0.1453365   -6.9768156   -113.02108 
    2330    7.8558509   -7.2496523   0.14783298   -6.9847353   -84.900442 
    2340    3.8240499   -7.1941875   0.13943826   -6.9977554   -19.098976 
    2350   0.80874353   -7.1456593   0.12553169    -7.008074    19.656277 
    2360    2.7269414   -7.1741644   0.13015365   -7.0033683    15.296072 
    2370    5.7314627   -7.2353008   0.15449695   -6.9953818   -27.906801 
    2380    4.0758267   -7.2237771   0.16671936   -6.9963114   -68.107118 
    2390    3.3150205   -7.2044215   0.15326584   -7.0017485    -53.10337 
    2400    5.8841779   -7.2311182   0.13633958   -7.0070805   -15.666349 
    2410    6.0001028   -7.2362933   0.13414863   -7.0127189   -49.011581 
    2420    2.5130427    -7.194435   0.13790715   -7.0190733     -126.361 
    2430   0.40349752   -7.1564305   0.12974149   -7.0206752   -122.53054 
    2440    3.0119252   -7.1876013   0.12320936    -7.019502   -52.723339 
    2450    4.9700946   -7.2306304   0.13489983    -7.021656   -34.980754 
    2460    3.1372818   -7.2208375   0.15278373   -7.0212956   -71.165679 
    2470    2.9964864   -7.2220795    0.1585391   -7.0188806   -76.368227 
    2480    5.1257482   -7.2537357   0.15334534    -7.023996   -36.267136 
    2490    4.6618261    -7.251771   0.14441452   -7.0378764    5.6199016 
    2500     1.397816   -7.1993427   0.13397191   -7.0445377    19.438844 
    2510   0.62289296    -7.181457   0.13420823   -7.0379651   -16.107088 
    2520      3.23206   -7.2316585   0.14685384   -7.0366339   -70.962707 
    2530    3.9209663   -7.2490983   0.15093485   -7.0397251   -67.685963 
    2540    2.3707225   -7.2129273   0.13972389     -7.03787   -31.413334 
    2550     2.377975   -7.2084813   0.13547592   -7.0375639   -64.258395 
    2560    3.9860251    -7.247704   0.14584299   -7.0424531   -134.61908 
    2570    3.5793082   -7.2429522   0.14200357   -7.0476024   -124.00468 
    2580   0.97897552   -7.1878778   0.12273658   -7.0505505   -57.125248 
    2590   0.96314776   -7.1890897   0.12035076   -7.0543841   -41.636098 
    2600    3.1894363   -7.2411242   0.14101707   -7.0525716   -68.463154 
    2610    3.2548874   -7.2544473   0.15816016   -7.0477761   -67.278493 
    2620    1.7525962    -7.233968   0.15806064   -7.0497865   -28.180052 
    2630    1.9867866   -7.2356274   0.15196747   -7.0540488     17.88522 
    2640    3.5720044   -7.2592019    0.1499278   -7.0560367    21.916874 
    2650    2.6071971   -7.2500429   0.15107575   -7.0601093   -26.786467 
    2660    0.7974734   -7.2212405   0.14399509   -7.0653598   -53.158284 
    2670     1.595305   -7.2199851   0.13233883   -7.0638698   -26.350565 
    2680    2.9425808   -7.2386667   0.13218718   -7.0626232   -30.866865 
    2690     2.508737   -7.2421825   0.14209085   -7.0627014   -95.097889 
    2700    1.1873468   -7.2220511   0.14477669   -7.0595781    -133.6637 
    2710    1.6837233   -7.2250056    0.1394479   -7.0604634   -113.99105 
    2720    2.9954331   -7.2460425   0.13388424   -7.0675141    -81.64558 
    2730    2.1287656   -7.2293141   0.12725672   -7.0703301   -69.992057 
    2740   0.90796646   -7.2134131   0.13062387   -7.0692569   -84.419557 
    2750    1.6016813   -7.2397551   0.14385094   -7.0720326   -78.908223 
    2760    2.6473722   -7.2601967   0.14941544   -7.0713247   -19.069193 
    2770    1.9137205   -7.2460444   0.14839047   -7.0691317    24.655903 
    2780   0.67473756   -7.2368871   0.15675281    -7.070078     1.770871 
    2790    1.7157142    -7.261713   0.16578274   -7.0703592   -22.689515 
    2800    2.6671612   -7.2704355   0.15759213   -7.0730918   -10.644188 
    2810    1.6661617   -7.2431348   0.13782913   -7.0804731   -2.8620123 
    2820    1.0476144   -7.2238714   0.12796201   -7.0802957   -28.434975 
    2830    1.6665972    -7.238854   0.13677164   -7.0772434   -82.319542 
    2840    2.1133127    -7.254391   0.14494917   -7.0779449   -117.80501 
    2850    1.0919521   -7.2278614    0.1354187   -7.0761682   -100.21619 
    2860   0.39502749   -7.2100528   0.12885587   -7.0753094   -87.039543 
    2870    1.5105396   -7.2386493    0.1379015   -7.0782346   -111.82389 
    2880    2.2256878   -7.2539151   0.14173378   -7.0790096   -114.85175 
    2890    1.5571963   -7.2401838   0.13501983   -7.0819554   -76.929078 
    2900    1.0289977   -7.2339734   0.13200685   -7.0866303   -31.343376 
    2910    1.6261916   -7.2489187   0.14107416   -7.0836077   -8.3367386 
    2920    1.8853921   -7.2674327   0.15712281   -7.0822099   -17.945931 
    2930   0.65358153   -7.2558285   0.16393661   -7.0821509   -12.556334 
    2940   0.47386388   -7.2457357   0.15797547   -7.0806977    19.412658 
    2950    1.6823948   -7.2615741   0.15224815   -7.0842514    13.907521 
    2960    2.0155106   -7.2630184   0.14575144   -7.0872277   -27.658456 
    2970    1.2934904   -7.2463719   0.14020375   -7.0868899   -61.199434 
    2980    0.9536001   -7.2411275   0.13661096   -7.0903041   -75.134469 
    2990    1.4912206   -7.2411198   0.13046141   -7.0884331    -74.96894 
    3000    1.2901057   -7.2353002   0.12989888   -7.0861736   -96.375974 
    3010   0.36343638   -7.2303193    0.1384004   -7.0865022   -128.29152 
    3020   0.51861742   -7.2350933   0.14264085   -7.0847229   -117.73868 
    3030    1.5229565   -7.2484841   0.13814588     -7.08764   -87.038778 
    3040    1.8377403   -7.2502454   0.13148122   -7.0913744   -62.925719 
    3050    1.1399102   -7.2437681   0.13569106   -7.0910877     -47.7662 
    3060   0.85839147   -7.2559271   0.14932426   -7.0938093   -39.254694 
    3070    1.3442151   -7.2643889   0.15272273   -7.0916319   -8.2437864 
    3080   0.93647219   -7.2543946   0.15023633   -7.0902011    18.243057 
    3090   0.22845579     -7.24964   0.15542077   -7.0908143    9.7401086 
    3100   0.67650473   -7.2596281   0.16066667   -7.0888788   -11.530907 
    3110    1.6146673   -7.2713057   0.15520106   -7.0920395   -36.375269 
    3120    1.5744805   -7.2560375   0.13807957   -7.0944918   -43.377155 
    3130   0.81256885   -7.2366076    0.1294486   -7.0950484   -52.677951 
    3140   0.85543228   -7.2434931   0.13403147   -7.0967122   -88.754933 
    3150    1.1168253   -7.2465568   0.13689535   -7.0930162   -111.36705 
    3160   0.66955166   -7.2388484   0.13576349   -7.0931059   -111.75751 
    3170   0.23914771   -7.2309913   0.13466196   -7.0927651   -94.008138 
    3180   0.68437361   -7.2401728   0.13785635   -7.0921165   -82.331535 
    3190    1.4970048   -7.2608382   0.14306629   -7.0954604   -85.557654 
    3200    1.3501263   -7.2581415   0.14228612    -7.095733   -59.847016 
    3210   0.71576155   -7.2509143    0.1411043   -7.0991423   -22.861119 
    3220   0.84082841   -7.2542905   0.14317789   -7.0985808   0.65326721 
    3230    1.0433446   -7.2632577   0.15169291   -7.0960147   -1.4301705 
    3240   0.62827636   -7.2663968   0.16081378   -7.0962191   -16.423001 
    3250   0.32505361   -7.2561601   0.15722284   -7.0940926   -11.342062 
    3260   0.92149132   -7.2580077   0.14764564   -7.0966281   -18.061936 
    3270    1.4415175   -7.2593719   0.14063816   -7.0972493   -40.541519 
    3280    0.9348879   -7.2534019    0.1407089   -7.0987594   -72.340617 
    3290   0.56211819   -7.2461039   0.13732987   -7.1003962   -91.600391 
    3300   0.79661537   -7.2395902   0.12939232    -7.098325   -84.850354 
    3310   0.91398375     -7.24371   0.13068185    -7.099406   -88.690143 
    3320   0.54060642   -7.2447967   0.14008849   -7.0966509   -95.610361 
    3330   0.33122937   -7.2489496   0.14662214   -7.0973908   -100.01192 
    3340   0.91148726   -7.2528979   0.14122062   -7.0980924   -75.916313 
    3350     1.224044   -7.2551211   0.13714472   -7.0997332   -39.488636 
    3360   0.77120731   -7.2566701    0.1427545   -7.1024215   -26.934247 
    3370   0.52834073    -7.257996   0.14919418   -7.1009274   -25.900129 
    3380   0.79409282    -7.264146   0.14998186    -7.102329   -24.321616 
    3390   0.92320376   -7.2607764   0.14748949   -7.0995275   -2.6876463 
    3400   0.49119081    -7.258722   0.15143585   -7.0999654   -6.1599493 
    3410   0.42891093   -7.2591607    0.1539349   -7.0988333   -36.571979 
    3420   0.95464677   -7.2628255   0.14888592   -7.0997115   -64.689073 
    3430   0.94246074   -7.2545594   0.13829611   -7.1022168   -65.231009 
    3440    0.5392553   -7.2423456   0.13198707   -7.1023215   -56.275796 
    3450   0.51634039   -7.2455858   0.13409226    -7.103798   -80.299077 
    3460   0.88268142   -7.2520456   0.13780752   -7.1010825   -100.96464 
    3470   0.90399958   -7.2558755   0.14020939   -7.1021929   -96.215372 
    3480   0.45119205   -7.2459766   0.13921138   -7.1000407   -62.620614 
    3490   0.48332795    -7.250875   0.14216427   -7.1015072   -55.393901 
    3500   0.84169716   -7.2605361   0.14656762   -7.1014238   -62.414213 
    3510   0.76393607   -7.2626882   0.14767877   -7.1036237   -52.093865 
    3520   0.46124509   -7.2541872   0.14250473    -7.104808   -19.070829 
    3530    0.5293726   -7.2532913   0.14085629   -7.1045452   -3.0772661 
    3540    0.9559147   -7.2667019   0.14833408   -7.1041208   -26.887893 
    3550   0.84323888   -7.2686882   0.15440439   -7.1017161   -46.120115 
    3560   0.41930596   -7.2590775   0.15035727   -7.1024708   -45.004234 
    3570   0.51059385   -7.2503631   0.14146097   -7.1012922   -34.220017 
    3580   0.72597396   -7.2553773   0.14062433    -7.103933   -58.037853 
    3590   0.57729033   -7.2538615   0.14200576   -7.1032518   -83.164727 
    3600   0.35688644   -7.2493663   0.13822738   -7.1058199   -87.374133 
    3610   0.62171115   -7.2452543   0.13180474   -7.1041835   -62.437983 
    3620   0.96922608   -7.2558691   0.13633168    -7.105092   -60.073215 
    3630   0.70558816    -7.259379   0.14607566   -7.1027872   -73.593457 
    3640   0.36215268   -7.2586147   0.14970073   -7.1035164   -76.531389 
    3650   0.44045155   -7.2540274   0.14415275   -7.1033102   -45.046154 
    3660   0.60761746   -7.2566395   0.14211414   -7.1054694   -22.089034 
    3670   0.48622965   -7.2581082   0.14504728   -7.1058142   -30.716165 
    3680   0.36403878   -7.2588872   0.14689439   -7.1065672   -48.630615 
    3690   0.73867413   -7.2608251   0.14396376   -7.1058521    -40.21498 
    3700   0.95165172   -7.2622096   0.14275234   -7.1052738   -25.085089 
    3710   0.61124698   -7.2591751    0.1456687   -7.1043964    -40.68108 
    3720   0.30734259   -7.2565078   0.14821474   -7.1037124   -72.721659 
    3730   0.39344476   -7.2554028   0.14520292   -7.1043359   -78.663393 
    3740   0.53756483   -7.2521929    0.1387654   -7.1054156   -56.679205 
    3750   0.37744857   -7.2475539   0.13520642   -7.1067219   -52.708084 
    3760   0.42024382   -7.2508473   0.13798703   -7.1065969   -72.311552 
    3770   0.81741264   -7.2617877   0.14313905   -7.1064659   -78.728228 
    3780   0.88095649   -7.2631657   0.14434119   -7.1056947   -51.789654 
    3790   0.51903996    -7.256968   0.14365251   -7.1055797    -32.49827 
    3800    0.2548459   -7.2553284   0.14640661   -7.1051235   -42.798169 
    3810   0.38096285   -7.2620988   0.15058728   -7.1058336   -56.889552 
    3820     0.482682   -7.2617253   0.14763452   -7.1068969   -42.824627 
    3830   0.33230782   -7.2522339    0.1393993   -7.1078819   -24.875978 
    3840   0.48476057   -7.2530012   0.13783639   -7.1079399   -36.616473 
    3850   0.80610053   -7.2632831   0.14441621   -7.1068527    -64.66031 
    3860   0.76889963   -7.2652386   0.14756763   -7.1062113   -71.846344 
    3870   0.39119545   -7.2534274   0.14229586   -7.1053012   -56.878072 
    3880   0.20102249   -7.2479887   0.13914221   -7.1058505   -56.114104 
    3890   0.40222352    -7.254259   0.14264464   -7.1056196    -71.92755 
    3900   0.42273432   -7.2584734   0.14473141   -7.1074415    -78.67986 
    3910   0.32112941   -7.2513509    0.1393644   -7.1072003   -55.459438 
    3920   0.51919559   -7.2536872   0.13720962   -7.1087395    -37.97438 
    3930   0.75754645    -7.261435   0.14337495   -7.1067695   -39.994386 
    3940   0.64467034   -7.2683058   0.15146397   -7.1072337   -53.830636 
    3950   0.26888162   -7.2599937   0.15060776   -7.1053785   -42.213169 
    3960   0.21557868   -7.2566159   0.14615416   -7.1072488   -28.791898 
    3970   0.42152913   -7.2568185   0.14395449   -7.1065815   -31.040999 
    3980    0.3799004   -7.2587866   0.14442578   -7.1086988   -56.139394 
    3990   0.33361821   -7.2545929   0.14182453   -7.1077961   -63.505801 
    4000    0.5168799   -7.2547264   0.13839228   -7.1086305   -57.373782 
    4010   0.69959622   -7.2553826   0.13774691   -7.1072089   -57.117416 
    4020     0.525001   -7.2558203   0.14141232   -7.1065834   -76.124201 
    4030   0.20302623   -7.2539172   0.14480004   -7.1060913    -85.46807 
    4040   0.27621107   -7.2540277   0.14391531   -7.1059957   -69.190526 
    4050   0.43446103   -7.2545198    0.1403747   -7.1076699   -51.600042 
    4060    0.3613451   -7.2520364   0.13929044   -7.1073605   -47.614613 
    4070   0.31749984   -7.2578424    0.1440316   -7.1090788   -52.927416 
    4080   0.47595955   -7.2621809   0.14766704   -7.1074201   -38.006286 
    4090    0.6195687   -7.2650264   0.14736721   -7.1084251    -23.66382 
    4100   0.38848522   -7.2586528    0.1462534   -7.1066093   -22.161262 
    4110   0.20190298   -7.2600822   0.14991125   -7.1071618   -39.802047 
    4120   0.35820444   -7.2635822   0.15120847    -7.107035    -49.35218 
    4130   0.44414106     -7.25831   0.14395862   -7.1077319   -48.272271 
    4140   0.32875123   -7.2497002   0.13563853    -7.109162   -53.249837 
    4150   0.25873398   -7.2476395   0.13559547   -7.1081878   -67.543824 
    4160   0.42484706   -7.2562606   0.14102358   -7.1089051   -84.875719 
    4170   0.50794006   -7.2550992   0.14081018   -7.1067187    -81.98038 
    4180   0.28558692   -7.2496069   0.13798973   -7.1073608    -73.72539 
    4190    0.2188473   -7.2496041   0.14004323   -7.1062992   -66.362921 
    4200   0.38882371   -7.2588566   0.14599249    -7.107069   -65.925778 
    4210   0.44753014   -7.2611148   0.14642954   -7.1080153   -56.682082 
    4220   0.28830582   -7.2545467   0.14207867   -7.1081711   -34.099045 
    4230   0.20505349   -7.2554643    0.1427584   -7.1096498   -20.145408 
    4240   0.40327562   -7.2624374   0.14867749   -7.1077495   -20.014201 
    4250   0.42140163   -7.2674852   0.15300721   -7.1081974   -31.920245 
    4260   0.26009299   -7.2609002    0.1502459   -7.1067779   -32.613665 
    4270   0.29786651   -7.2575317   0.14601535   -7.1070769   -32.973324 
    4280   0.45144566   -7.2583741   0.14364833   -7.1079974   -47.804186 
    4290   0.42096196   -7.2553756   0.14152027   -7.1075813   -69.079309 
    4300   0.18882336   -7.2502983   0.13813061   -7.1093535   -82.511985 
    4310   0.17318419   -7.2447447   0.13410017   -7.1080634   -76.608985 
    4320   0.37118002    -7.248393   0.13455278   -7.1083081   -76.727744 
    4330   0.37693864   -7.2524649   0.13941391   -7.1074331   -84.801259 
    4340   0.28770801   -7.2550205   0.14435314   -7.1063793   -83.388053 
    4350   0.35383074   -7.2575676   0.14464505   -7.1076491   -65.550944 
    4360   0.50600759    -7.256712   0.14209167   -7.1070788    -39.68354 
    4370   0.40234951   -7.2590316   0.14422053   -7.1088145   -31.609102 
    4380   0.12432234   -7.2596872   0.14902444   -7.1088099   -30.398487 
    4390   0.17190381   -7.2608935   0.14994382   -7.1083876   -22.050391 
    4400   0.35425884   -7.2612923   0.14710413   -7.1089083   -13.513278 
    4410   0.36721514   -7.2595926   0.14718323   -7.1069364   -17.311567 
    4420   0.33253064   -7.2635482    0.1512927   -7.1072994   -42.333503 
    4430    0.4397693   -7.2626814   0.14895098   -7.1071761    -62.25233 
    4440   0.53164578    -7.254638   0.13936675   -7.1073476   -64.740514 
    4450   0.29796204   -7.2471073   0.13343832   -7.1092282   -67.994739 
    4460  0.078937922   -7.2446373   0.13531585   -7.1081449   -81.438331 
    4470   0.18058533   -7.2497311   0.13851242   -7.1085272   -97.649582 
    4480   0.35002024   -7.2501809   0.13698818    -7.107976   -90.777579 
    4490   0.37742171   -7.2493604    0.1370771   -7.1066582   -67.255918 
    4500   0.34827565   -7.2563015   0.14356878    -7.107542   -58.534368 
    4510   0.48572291   -7.2629694   0.14890718   -7.1068229   -58.278831 
    4520   0.52917887   -7.2634007   0.14784885    -7.107665   -44.693011 
    4530   0.24356314   -7.2574056   0.14466143   -7.1091141   -16.182045 
    4540  0.082448933   -7.2553476   0.14592151   -7.1081973   -1.5976673 
    4550   0.22894542   -7.2627755   0.15063054   -7.1087328   -19.751295 
    4560   0.41209638   -7.2653726   0.15155289   -7.1076778   -37.370974 
    4570   0.40626593   -7.2605426   0.14792005   -7.1065675   -34.503258 
    4580   0.39518056   -7.2577017   0.14428274   -7.1075292   -38.038474 
    4590    0.5391789   -7.2571445   0.14216433   -7.1069442   -63.713275 
    4600   0.45001881   -7.2544995   0.14030013   -7.1074923   -91.000912 
    4610   0.17574598   -7.2474662    0.1360585   -7.1087884   -90.555917 
    4620  0.096916673   -7.2411265   0.13187482   -7.1078072   -73.869949 
    4630   0.27202059   -7.2463517   0.13404401   -7.1082535   -77.587592 
    4640     0.445618   -7.2554035   0.14120589   -7.1075561   -89.963543 
    4650   0.40040333   -7.2578672     0.145671   -7.1062286   -76.298317 
    4660   0.42366692   -7.2584702    0.1448515   -7.1073043   -44.088223 
    4670   0.54813781   -7.2600681   0.14434144   -7.1075572   -24.823993 
    4680   0.41721845   -7.2624502   0.14854663   -7.1076853   -28.207388 
    4690   0.16205376   -7.2630745   0.15158285   -7.1090764   -29.750511 
    4700   0.13002893   -7.2577383   0.14750918   -7.1082912   -13.591562 
    4710   0.35901647   -7.2571741   0.14422306   -7.1076002   -8.5433029 
    4720   0.46335701   -7.2622608   0.14766863   -7.1076862   -34.205267 
    4730   0.36402732   -7.2620477   0.15032266   -7.1062996   -62.646467 
    4740   0.43527982   -7.2576713   0.14475069   -7.1064331   -68.795108 
    4750   0.50223666   -7.2516441   0.13642619   -7.1077325    -64.58147 
    4760   0.35688268   -7.2471252   0.13443759   -7.1073686   -74.432857 
    4770   0.15572815   -7.2477334    0.1374997   -7.1079127   -94.800619 
    4780   0.18765393   -7.2486807   0.13746545   -7.1084184   -94.112172 
    4790   0.41260337   -7.2489212   0.13570039   -7.1070714    -68.59274 
    4800   0.42567509   -7.2530576   0.13982102   -7.1068923     -53.6612 
    4810   0.33811281   -7.2596269    0.1475797    -7.107008   -58.789754 
    4820   0.41468658   -7.2628736   0.15049545   -7.1061976   -52.934106 
    4830   0.47994931   -7.2620518   0.14773236   -7.1071663   -25.595406 
    4840   0.35425614   -7.2590377   0.14535866   -7.1083992   -6.3864152 
    4850   0.17710477   -7.2566944   0.14646077   -7.1075941   -17.374059 
    4860   0.29089843   -7.2606558   0.14876998   -7.1075502   -38.904512 
    4870   0.47270807   -7.2622587   0.14775735   -7.1074561   -41.079397 
    4880   0.37722495   -7.2557688   0.14409379   -7.1060528   -36.024473 
    4890   0.29915889   -7.2527059   0.14235968   -7.1058875   -54.932245 
    4900   0.38858627   -7.2551725    0.1427576   -7.1066234   -84.486372 
    4910   0.46952799   -7.2541441   0.14073956   -7.1064067   -88.096758 
    4920   0.34048207   -7.2475636   0.13556718   -7.1069219   -71.380139 
    4930    0.2207286   -7.2442424    0.1329433   -7.1080094   -67.725946 
    4940   0.36755045   -7.2498601    0.1374155   -7.1069666   -78.127622 
    4950   0.44415868   -7.2572978    0.1445748   -7.1061032    -74.42927 
    4960   0.31875108   -7.2577096   0.14648202   -7.1064769   -50.091792 
    4970   0.25034727   -7.2542133   0.14455129   -7.1059308   -30.431825 
    4980   0.37628484   -7.2579481   0.14673273   -7.1056072   -31.959098 
    4990     0.494338   -7.2653756   0.15113806   -7.1068699   -37.514453 
    5000   0.35201248   -7.2611032   0.14855374   -7.1073031   -28.702392 
    5010   0.29369614   -7.2526645   0.14172726   -7.1065599    -20.74203 
    5020   0.42789588   -7.2545418   0.14157719   -7.1065873   -34.738186 
    5030   0.40499336   -7.2592218   0.14699709   -7.1061887   -58.753626 
    5040   0.22927486    -7.255534   0.14723411   -7.1048828   -68.024813 
    5050   0.18720447    -7.248643   0.14092997   -7.1049229   -64.177316 
    5060   0.40227196   -7.2494235   0.13743215   -7.1059958   -66.477157 
    5070   0.50343081    -7.252973   0.13940087   -7.1060689   -77.142886 
    5080   0.36856476   -7.2519111   0.14037968   -7.1060383   -79.351974 
    5090    0.3659577   -7.2505201   0.13809576   -7.1069701   -65.301324 
    5100   0.43617905   -7.2513493   0.13822321   -7.1066252   -49.291753 
    5110   0.35904323   -7.2545049   0.14404456   -7.1051091   -46.935939 
    5120   0.16212127    -7.257331   0.15000207   -7.1049126    -50.36592 
    5130   0.17580069   -7.2580715   0.15000555   -7.1054458   -41.959927 
    5140   0.46386114   -7.2581595   0.14593189   -7.1053142   -27.162214 
    5150   0.52436147   -7.2569865   0.14354388   -7.1056275   -27.540582 
    5160   0.41010103   -7.2568315   0.14414055   -7.1065788   -43.880345 
    5170   0.39986237   -7.2565975   0.14439633   -7.1062416    -54.28337 
    5180   0.43072083     -7.25355   0.14222002   -7.1049105    -51.86253 
    5190   0.29752803   -7.2495754   0.14062921   -7.1045118   -54.078161 
    5200  0.085460426   -7.2482266   0.14231567   -7.1046372     -68.0671 
    5210   0.22608595   -7.2525178   0.14493501   -7.1042132   -77.250854 
    5220     0.524558   -7.2550023   0.14286541   -7.1043188   -69.315573 
    5230   0.54020819    -7.251174    0.1376621   -7.1054606   -55.730013 
    5240   0.43100209   -7.2497891   0.13723253   -7.1061328   -52.141085 
    5250   0.39806844    -7.254291   0.14322838   -7.1051298   -54.559719 
    5260   0.40634099   -7.2580279   0.14749613   -7.1044757   -49.840479 
    5270   0.21493263   -7.2534515   0.14562363   -7.1046245   -38.026893 
    5280  0.047720372   -7.2495016   0.14451929   -7.1042711   -32.964181 
    5290   0.29915732   -7.2564358   0.14831103   -7.1036661   -41.423977 
    5300   0.57534492   -7.2617321   0.14898897   -7.1041682   -51.682286 
    5310   0.56960068   -7.2556266   0.14178356   -7.1053537   -51.355403 
    5320   0.41825479   -7.2473864   0.13596274     -7.10519   -47.576898 
    5330   0.39480991   -7.2490772   0.13919716   -7.1039957   -56.091923 
    5340   0.39103513   -7.2542594   0.14490936   -7.1035221   -72.489083 
    5350   0.14522227   -7.2495043   0.14383856   -7.1035013   -74.798312 
    5360  0.074370718   -7.2444489   0.14031521   -7.1030253   -59.993591 
    5370   0.37797605    -7.250332   0.14196351   -7.1027351   -50.764854 
    5380   0.61728584   -7.2583604   0.14564649   -7.1035138   -56.960056 
    5390   0.55759445   -7.2574571   0.14440905   -7.1047377   -57.417105 
    5400   0.38759512    -7.251082   0.14062843   -7.1046768   -38.531264 
    5410    0.4277083   -7.2517535   0.14175906   -7.1036199   -23.726498 
    5420    0.3844987   -7.2563264   0.14744257   -7.1031533   -35.077703 
    5430   0.13090044   -7.2554694   0.15038534   -7.1031331   -53.682387 
    5440   0.15471505   -7.2523377   0.14724383    -7.102788    -51.77622 
    5450   0.46329717   -7.2514101   0.14208461   -7.1024205    -41.31168 
    5460   0.65835466    -7.252586   0.13985471   -7.1029191   -52.196363 
    5470    0.4956755   -7.2515081   0.14024473   -7.1038758   -76.373495 
    5480   0.34767855   -7.2482362    0.1392405   -7.1038139   -79.996116 
    5490    0.4521512   -7.2460756   0.13682409   -7.1025127   -62.565272 
    5500   0.37134189   -7.2453349   0.13819018   -7.1016102    -56.56133 
    5510   0.16381076   -7.2490562   0.14496739   -7.1016473   -69.222664 
    5520   0.22491737   -7.2547142   0.14946345   -7.1018986   -69.194271 
    5530   0.54428858   -7.2557314   0.14579021   -7.1018291   -42.800902 
    5540   0.65216921   -7.2527507   0.14110207   -7.1019287   -20.585042 
    5550   0.39890996   -7.2525817   0.14387512   -7.1027612   -27.052835 
    5560   0.36312871    -7.258116   0.14927684   -7.1034271   -41.593587 
    5570   0.50734302   -7.2577626   0.14754247   -7.1026587   -36.196869 
    5580   0.39506522   -7.2496132     0.142668   -7.1010571   -25.536596 
    5590   0.20660445    -7.247959   0.14433566   -7.1005441   -41.185344 
    5600   0.29520847   -7.2537984   0.14825914   -7.1011394   -73.264395 
    5610   0.60864142    -7.254354   0.14347837   -7.1018045    -83.22264 
    5620   0.58145126   -7.2439393   0.13352171   -7.1017516   -67.504443 
    5630   0.32988358   -7.2377448   0.13161394   -7.1012143   -63.569835 
    5640   0.40719096   -7.2455008   0.13832617   -7.1011058   -83.617889 
    5650   0.57418126   -7.2521958   0.14248886   -7.1011493   -90.457756 
    5660   0.48691658   -7.2490856   0.14125365   -7.1005749    -62.42985 
    5670   0.26231412   -7.2464883   0.14308179   -7.0994969   -33.417672 
    5680   0.38430159   -7.2542904   0.14949522   -7.0990675   -35.664662 
    5690   0.65408239   -7.2617739   0.15216047    -7.099865   -44.262994 
    5700   0.47378956   -7.2558112   0.14737334   -7.1013765   -24.491058 
    5710   0.30078795   -7.2495298   0.14307435   -7.1019725  0.080994993 
    5720   0.52045769   -7.2533413     0.144845   -7.1007393   -13.460321 
    5730   0.72390894   -7.2585838   0.14870265   -7.0990919    -50.64123 
    5740   0.55682698   -7.2547452   0.14783197   -7.0986142   -63.673615 
    5750   0.29324772    -7.245776   0.14228516   -7.0991203   -53.997124 
    5760   0.47412747   -7.2444652   0.13792896   -7.0994698   -64.647704 
    5770   0.61518748    -7.245656   0.13733434   -7.0991529   -96.567328 
    5780   0.37898183   -7.2411094   0.13668516   -7.0987759   -104.54148 
    5790   0.30430284   -7.2368683   0.13326265   -7.0990703   -78.410294 
    5800   0.59160142   -7.2407843   0.13245753   -7.0995095   -60.684936 
    5810   0.85738612   -7.2519372   0.14011281   -7.0990458   -70.046381 
    5820   0.59868954   -7.2572405   0.15062806   -7.0976896   -69.035483 
    5830   0.33532239   -7.2543326   0.15266037   -7.0966746   -34.478254 
    5840   0.55155222   -7.2526971   0.14773204   -7.0967447    -1.427276 
    5850   0.57515153   -7.2534358    0.1469733   -7.0978904   -4.3694237 
    5860   0.32811021    -7.255689   0.15152524   -7.0992736   -23.698802 
    5870   0.38777806   -7.2556533   0.15034576   -7.0995281   -24.749198 
    5880   0.85082775   -7.2535429   0.14264714   -7.0982149   -18.244559 
    5890    1.0006127   -7.2514593   0.14029962   -7.0962465   -37.531401 
    5900   0.54357892   -7.2488071   0.14542094   -7.0952846   -77.011585 
    5910   0.37747273   -7.2468749   0.14548193   -7.0957671   -98.278181 
    5920   0.56540543    -7.241037    0.1358062    -7.096804   -89.944216 
    5930   0.52319293   -7.2340232   0.12875683   -7.0974687   -82.492768 
    5940    0.3250841   -7.2339953   0.13209822    -7.097052   -93.390162 
    5950   0.46659781   -7.2407442   0.13777437   -7.0960156   -97.093242 
    5960    1.0410638   -7.2497809   0.13895079    -7.095314   -71.322454 
    5970      1.11328    -7.252677   0.14107154    -7.095013   -37.525965 
    5980   0.58941448    -7.253367   0.14945001   -7.0951323   -27.065796 
    5990   0.45674914   -7.2592955   0.15735261   -7.0951355    -29.50236 
    6000    0.6294132   -7.2603239   0.15590841   -7.0950347   -14.459509 
    6010     0.551989   -7.2512399    0.1481053   -7.0949077    9.2209407 
    6020   0.33372222   -7.2434892   0.14365654   -7.0948588    4.0259927 
    6030   0.72450134   -7.2508643   0.14524394   -7.0948223   -32.435898 
    6040    1.3025905   -7.2610438   0.14705226   -7.0945776    -61.06796 
    6050    1.0398936   -7.2528401   0.14341188   -7.0939296   -65.319951 
    6060   0.52053202   -7.2386388   0.13780806   -7.0930727   -73.326219 
    6070   0.50107678   -7.2358881   0.13616017   -7.0922599   -99.116785 
    6080   0.70397453   -7.2397295   0.13728258   -7.0919548   -114.49642 
    6090   0.57499819   -7.2352291   0.13435058   -7.0923087   -98.419561 
    6100   0.37034377   -7.2276155   0.12895797   -7.0931379   -73.615186 
    6110   0.87740854   -7.2388336   0.13200973   -7.0937469   -67.135699 
    6120    1.4036654   -7.2594131   0.14524052   -7.0932523   -65.201721 
    6130    1.0609644   -7.2628299    0.1551792    -7.091838   -42.390804 
    6140    0.5299264   -7.2516458   0.15319129   -7.0905565   -8.4671121 
    6150   0.58034922   -7.2483525   0.14980867   -7.0898943    6.8216356 
    6160   0.89959146   -7.2566581   0.15325701   -7.0899935   -2.5563733 
    6170    0.6263185   -7.2538655   0.15383113   -7.0906997   -15.902981 
    6180   0.55820269   -7.2439638   0.14407605   -7.0915683   -22.487487 
    6190    1.2306211   -7.2463456   0.13634821   -7.0916561   -34.967588 
    6200    1.4794228   -7.2528924   0.14039052   -7.0904524   -63.509519 
    6210   0.92162481   -7.2490049   0.14653599    -7.088733   -94.941084 
    6220   0.48616608    -7.235934   0.14120483   -7.0874833   -105.78595 
    6230   0.79765537   -7.2304163   0.13147034   -7.0870577   -95.515042 
    6240    1.0364222   -7.2331323   0.13030813   -7.0873773    -87.20324 
    6250   0.62687909   -7.2326792   0.13531056   -7.0880256   -90.361091 
    6260   0.67283204   -7.2358434    0.1371417   -7.0886738   -84.452258 
    6270    1.3432663   -7.2460006   0.13729231   -7.0886882   -54.216342 
    6280    1.5662663   -7.2551954    0.1441342   -7.0877175   -22.449611 
    6290   0.95929792   -7.2563519   0.15564976   -7.0864048   -16.091047 
    6300   0.55280683     -7.25434   0.16077586   -7.0853251   -21.338057 
    6310    1.1350203   -7.2569554   0.15516131   -7.0848777   -10.364178 
    6320    1.2193103   -7.2486059   0.14584695   -7.0845863    5.8294116 
    6330   0.67281482   -7.2360003   0.14133671   -7.0846359   -9.7685521 
    6340   0.84438441   -7.2398954   0.14273514   -7.0845755   -52.658794 
    6350    1.4944559   -7.2490197   0.14269965   -7.0840466   -77.593961 
    6360    1.4684902   -7.2434911   0.13841192   -7.0831927   -73.708086 
    6370   0.73134154   -7.2294191   0.13593153   -7.0825876   -78.013648 
    6380   0.78065258   -7.2343141    0.1400756   -7.0826036   -105.36742 
    6390    1.4753509   -7.2467829    0.1421094   -7.0826848   -116.44089 
    6400    1.2743559   -7.2358345   0.13422477   -7.0826167   -85.362772 
    6410   0.70614954   -7.2203385   0.12754645   -7.0822676    -48.85252 
    6420    0.8566209   -7.2295203   0.13556186   -7.0811913   -45.391923 
    6430    1.5584397   -7.2535459   0.15059995   -7.0797189   -53.222218 
    6440    1.5072088   -7.2552155   0.15439025   -7.0783617    -31.59775 
    6450   0.71118006   -7.2377181   0.14924532   -7.0778733    4.1709685 
    6460    1.1050875   -7.2465803   0.15176423   -7.0783458    3.4351881 
    6470    1.8369367    -7.263813   0.15726589   -7.0791693   -31.724201 
    6480    1.3667935   -7.2494546   0.14904231   -7.0800416   -49.198108 
    6490   0.66418649    -7.223668   0.13346744   -7.0803014   -35.936981 
    6500   0.98531291   -7.2253603   0.13147985   -7.0791953   -39.587793 
    6510    1.7365981   -7.2454887   0.14278013   -7.0768262   -82.004109 
    6520    1.2721874   -7.2402582   0.14674144    -7.074556   -112.14975 
    6530   0.77499486   -7.2234752    0.1385054   -7.0734193   -91.188083 
    6540    1.5654847   -7.2310655   0.13458464   -7.0731488   -60.564948 
    6550    2.0506137   -7.2432086    0.1394017   -7.0732444    -69.28257 
    6560    1.3041586    -7.234483   0.14136238   -7.0736834   -87.150196 
    6570   0.48945251    -7.217771   0.13609279   -7.0743834   -58.351263 
    6580    1.0272393   -7.2254409   0.13575737   -7.0743735   -9.3052861 
    6590    1.8255412   -7.2471035   0.14676034   -7.0731352   -8.9019831 
    6600    1.1987344   -7.2474997   0.15801269    -7.071621   -46.010103 
    6610   0.96468531   -7.2436314   0.15814102   -7.0711127   -49.889237 
    6620    1.9847679   -7.2498193   0.14871416    -7.071524   -15.830177 
    6630    2.2960473   -7.2461649    0.1402717   -7.0716728    -14.53771 
    6640    1.0953377   -7.2262199   0.13847966   -7.0714153    -64.04849 
    6650   0.34505823   -7.2151678   0.13934264   -7.0706824   -93.578381 
    6660    1.3726153   -7.2262179   0.13656783   -7.0691925    -68.15122 
    6670    1.7830804   -7.2281123   0.13443116    -7.067106   -47.273899 
    6680    1.0227285   -7.2212941   0.14081019   -7.0652411   -76.174921 
    6690    1.2618756   -7.2343586   0.15106525   -7.0644863   -103.67999 
    6700    2.4097582   -7.2484329   0.14805727   -7.0644605    -72.02608 
    6710    2.3642206   -7.2346009   0.13457449   -7.0647899   -21.647308 
    6720   0.80677731   -7.2085618   0.13121448   -7.0653231   -21.117657 
    6730    0.4376442   -7.2153103   0.14338373   -7.0654039   -52.482145 
    6740    1.7475682   -7.2415154   0.15109282   -7.0643768   -48.655627 
    6750    1.9286727   -7.2365542   0.14522243   -7.0625867   -13.861605 
    6760    1.1850465   -7.2227481   0.14365901   -7.0614271   -16.159093 
    6770    1.6339701   -7.2387845    0.1533018   -7.0611299   -63.642822 
    6780    2.8889927   -7.2580475    0.1535708    -7.061419   -87.512904 
    6790    2.3185807   -7.2320414   0.13546183   -7.0620233   -59.074436 
    6800   0.48139967   -7.1930187   0.12334202   -7.0625019   -39.635973 
    6810    0.7997864   -7.2067645    0.1330089   -7.0618355   -72.739004 
    6820    2.1937529   -7.2395858   0.14699654   -7.0598934   -103.39595 
    6830    2.0429202   -7.2342334   0.14612665    -7.057659   -74.239621 
    6840    1.3022049   -7.2175396   0.14171666   -7.0564148   -28.164627 
    6850    2.1439649   -7.2357429   0.14774501   -7.0560442   -33.000403 
    6860    3.3947915   -7.2605523   0.15402539   -7.0559307   -62.826858 
    6870    2.0697327   -7.2322938   0.14539358   -7.0560528    -45.29095 
    6880   0.40915941   -7.1951475   0.13288185   -7.0561675    1.4762316 
    6890    1.3107583   -7.2091112   0.13431323   -7.0552623   -3.5774111 
    6900    2.6018831   -7.2378377   0.14640113    -7.052658   -59.915794 
    6910    2.1598627   -7.2351958   0.15288354   -7.0501216   -85.976763 
    6920    1.3400339    -7.215475   0.14655204    -7.048951   -59.206919 
    6930    2.5959545     -7.22486   0.13765051   -7.0485193   -50.167349 
    6940    3.6836237   -7.2379542   0.13519867   -7.0478546   -88.163142 
    6950    1.9327288   -7.2120886   0.13581837   -7.0474648   -109.31363 
    6960   0.66259094   -7.1901345   0.13278938   -7.0474699   -75.231748 
    6970    1.9882376   -7.2055851   0.12946203   -7.0464903   -37.971747 
    6980    3.3105434   -7.2308951   0.13744552   -7.0441091   -45.431725 
    6990    2.2357547   -7.2308612     0.155658   -7.0418814   -59.853939 
    7000    1.4425515   -7.2268341   0.16430391   -7.0410304   -33.987677 
    7010    3.4339841   -7.2448178   0.15272029   -7.0409172    4.4577321 
    7020    3.7820196   -7.2359502   0.13886017   -7.0407227    6.9679042 
    7030    1.7401336   -7.2066986   0.14008746   -7.0406761   -22.666369 
    7040    1.2952089   -7.2048611   0.14529819   -7.0402591   -42.838143 
    7050    3.0084518   -7.2213743   0.13786262   -7.0386736   -42.759521 
    7060    3.8450474   -7.2242007   0.13109408   -7.0357999   -54.688826 
    7070    2.1154893   -7.2047807   0.13969997   -7.0335514   -90.354947 
    7080    1.7726154   -7.2094132   0.15027431   -7.0327197    -120.4166 
    7090    3.8823228   -7.2309405   0.14063408   -7.0324441   -113.89528 
    7100    3.9033842   -7.2126494   0.12249736   -7.0319758   -82.547515 
    7110    1.8980984   -7.1824827    0.1223266   -7.0318667   -68.046067 
    7120    1.6332267   -7.1929563    0.1372739   -7.0313407   -74.366142 
    7130    3.8944214   -7.2343221   0.14691848    -7.029361   -61.133224 
    7140    4.2557848   -7.2366801   0.14696852   -7.0262831   -12.194317 
    7150    1.7641901   -7.2037405   0.15315465   -7.0242922     26.34324 
    7160    2.4551614   -7.2262884   0.16590446   -7.0237921    12.420588 
    7170    4.6646667   -7.2576279   0.16481446    -7.023291   -15.048923 
    7180    3.9671109   -7.2266504   0.14434646   -7.0231779   -7.1331329 
    7190    2.0929747   -7.1822901   0.12835205   -7.0227443    3.5854804 
    7200    2.6311408   -7.1899765   0.12918828   -7.0215735   -38.800492 
    7210    4.6965023   -7.2286212   0.13971904   -7.0189053   -108.57479 
    7220    3.6487369   -7.2105547   0.14032154   -7.0158522   -130.20618 
    7230    1.4317538   -7.1677367   0.13192391   -7.0144739   -106.67518 
    7240     2.718386    -7.183417   0.12872142   -7.0141806   -105.03017 
    7250    4.9863787   -7.2226788   0.13479196   -7.0135696   -131.79655 
    7260    4.5671418   -7.2172836   0.13612046   -7.0130943   -123.54237 
    7270    2.5802011   -7.1783682   0.12695398   -7.0129588   -59.912099 
    7280    3.4860217   -7.1902811   0.12637948   -7.0119458   -6.1333555 
    7290    5.7561453    -7.244265   0.14970691   -7.0087682   -3.2371101 
    7300    3.6575363    -7.234484   0.17488814   -7.0050838   -3.3401808 
    7310    1.4916682   -7.1987206   0.17261489   -7.0038739    30.558878 
    7320    3.8588871   -7.2160756   0.15437659    -7.004186     58.88016 
    7330     6.235855   -7.2454211   0.14790306   -7.0045786    29.109802 
    7340     4.648395   -7.2224746   0.14890291   -7.0042918   -39.115813 
    7350    3.0323632   -7.1846297   0.13573409   -7.0037011   -78.882807 
    7360    4.8522962   -7.1921522   0.11826501   -7.0015683    -78.93508 
    7370    5.4577947   -7.1999891   0.12107464   -6.9975712   -95.954883 
    7380    2.7596521   -7.1751813   0.13971182   -6.9943395   -153.43335 
    7390    1.4408775   -7.1569886   0.14257163    -6.992942   -186.16452 
    7400    4.0160407   -7.1790418   0.12633392   -6.9928526   -142.12126 
    7410     6.660806   -7.2117204    0.1199575   -6.9924899   -77.840121 
    7420    5.0385725    -7.198096     0.131456   -6.9915448   -66.876781 
    7430    3.3759687   -7.1827752   0.14229809   -6.9901615   -73.760809 
    7440    5.4881052   -7.2138848   0.14458328   -6.9875065   -16.160967 
    7450     5.663733   -7.2197238   0.15161485   -6.9836964    77.891682 
    7460    2.1381894   -7.1826146   0.16992947   -6.9808175    94.581875 
    7470    1.6538928   -7.1844116   0.17999785    -6.979764    25.696994 
    7480    6.0731294   -7.2362635   0.16656318   -6.9791861   -12.971787 
    7490    7.2361586   -7.2249592   0.13853643   -6.9785747    14.927893 
    7500       4.1557   -7.1617502   0.12186458   -6.9779489   -3.0731221 
    7510     4.186939   -7.1642907   0.12491276   -6.9769756   -111.44448 
    7520    5.8457173   -7.1933486   0.13167669    -6.974547    -183.6316 
    7530    4.5287481   -7.1655559   0.12621411   -6.9718451   -146.77617 
    7540    1.3697398   -7.1112753   0.12061179   -6.9702488   -107.53383 
    7550    1.8026254   -7.1258693   0.12867658   -6.9703263   -152.04835 
    7560    6.2713974   -7.2068141   0.14259383    -6.970751   -187.35171 
    7570     7.343779   -7.2158444   0.13551022   -6.9708821   -104.99983 
    7580    4.5319118   -7.1582975   0.12034334   -6.9704103     12.83465 
    7590    4.6836433   -7.1696644   0.13179888   -6.9680603    32.401131 
    7600    6.5401663   -7.2286478   0.16772547   -6.9634474  -0.69825828 
    7610     4.986858   -7.2165812   0.18329174    -6.958965    37.339215 
    7620    1.3883801   -7.1418931   0.16447804   -6.9567226    113.90203 
    7630    4.0837881   -7.1698108   0.15302886    -6.955917    87.048412 
    7640    8.7668648   -7.2447918   0.15904851   -6.9550815   -33.687477 
    7650    6.5879402   -7.1999446   0.14693404   -6.9548236   -97.924102 
    7660    4.0245908    -7.130591   0.11514492   -6.9554634   -72.249691 
    7670    5.1687103   -7.1357611   0.10397411   -6.9547523   -74.505816 
    7680    6.4810188   -7.1731783   0.12446535   -6.9521195   -161.18972 
    7690    4.1298355   -7.1528306   0.14237338    -6.948906   -221.98771 
    7700    1.2818015   -7.0969091   0.13020137   -6.9476037   -166.65024 
    7710    4.2877536   -7.1313391   0.12030186   -6.9471323   -84.710602 
    7720    8.7005021   -7.2076672   0.13228399   -6.9457105   -80.744786 
    7730    7.4275784   -7.1989115   0.14509489   -6.9431156   -94.304251 
    7740    4.7207083   -7.1513429   0.13946402   -6.9415212    -18.41767 
    7750    5.7249473   -7.1622602   0.13736612   -6.9395692    96.834233 
    7760    8.0661211   -7.2150839   0.15844113   -6.9364249    111.71644 
    7770    4.6088291   -7.1830352   0.18076145   -6.9335835    37.785554 
    7780    2.5812327   -7.1496189   0.17791047   -6.9332376  -0.40806463 
    7790    7.6479924   -7.2039229   0.15532639   -6.9346104    19.494951 
    7800    9.1350868   -7.2030415   0.13142885   -6.9354629   -2.2193961 
    7810    6.0025556   -7.1467101   0.12268994   -6.9345578    -106.0455 
    7820    4.5855986   -7.1236307   0.12367504   -6.9316116   -176.24095 
    7830    7.2977672   -7.1565821   0.12040364   -6.9274122   -141.88061 
    7840     8.957046   -7.1723526   0.11619514   -6.9226612   -103.05734 
    7850    5.2667921   -7.1206786   0.12278189   -6.9194002   -142.44193 
    7860    3.8273268   -7.1184348   0.14283479   -6.9185573   -182.18393 
    7870    7.9595007   -7.1887789    0.1504599   -6.9196902   -121.16609 
    7880    9.9463988   -7.2035544   0.13288795   -6.9224248   -12.150959 
    7890    6.8454062   -7.1503507   0.12363443    -6.924692    27.231649 
    7900    4.8341484   -7.1404831   0.14527814   -6.9231565    8.7122144 
    7910    8.8743211   -7.2222563   0.17224241   -6.9177505    24.845066 
    7920    9.9100463   -7.2249622   0.16585859   -6.9114038    80.417185 
    7930    5.3869275   -7.1358581    0.1481813   -6.9073898    78.160664 
    7940    5.9784349   -7.1519958   0.15662065   -6.9062723   -14.015267 
    7950    9.1511083   -7.2059232   0.16296129   -6.9065733   -92.138593 
    7960    8.3881573   -7.1676058   0.13375348   -6.9088348    -91.97211 
    7970    4.7555825   -7.0851807   0.10263287   -6.9116704    -78.68504 
    7980    5.2409651   -7.0985726   0.10937983   -6.9110811   -123.32718 
    7990    9.8507984   -7.1891207   0.13624939   -6.9060545   -179.21205 
    8000    9.1323696   -7.1752177   0.13907694   -6.9000315   -158.38034 
    8010    4.6347639   -7.0906513   0.12493804   -6.8966365   -88.414253 
    8020    4.9028552   -7.1027946   0.13360346   -6.8961188   -61.537804 
    8030    8.1327574   -7.1733942   0.15425657   -6.8979266   -73.325526 
    8040     7.839758    -7.171834   0.15309541   -6.9018945   -40.811118 
    8050    4.4769951   -7.1046993   0.13299291    -6.904981    46.362513 
    8060    6.4559701   -7.1341984   0.13525736   -6.9027209    85.001863 
    8070    11.504678   -7.2272772   0.15995137   -6.8958595    31.617989 
    8080    9.1161943   -7.1986381   0.17281294    -6.889957   -23.447081 
    8090    4.9138275   -7.1185664   0.15712864   -6.8882018   -20.903487 
    8100    5.6930461   -7.1110602   0.13721924   -6.8889915   -18.067575 
    8110    7.6217283   -7.1343542   0.12871963     -6.89204   -75.303846 
    8120    5.1080716   -7.0998948   0.12885194   -6.8949119   -143.13464 
    8130    3.9036858   -7.0770415   0.12423321   -6.8946275    -142.1516 
    8140    9.1751345   -7.1448887   0.11757225   -6.8905698   -94.225242 
    8150    12.612662    -7.194922   0.12141605   -6.8855262   -77.859143 
    8160    9.4665048   -7.1681354   0.14393743   -6.8831087   -102.32298 
    8170    5.5140679   -7.1298899   0.16409818   -6.8836098   -97.568171 
    8180    5.5145051   -7.1221931   0.15338012   -6.8866246   -32.604065 
    8190    6.8643687   -7.1254973   0.13337069   -6.8898197    29.952099 
    8200    4.7102197   -7.0947234   0.13505791   -6.8894642     33.85447 
    8210    4.9544286    -7.112361    0.1527091   -6.8858109   0.28780653 
    8220    10.693065   -7.1925497    0.1506497     -6.88253    -10.99477 
    8230    13.230408   -7.2128327   0.13469191   -6.8809541  -0.73106447 
    8240     9.202017   -7.1577234   0.13883512    -6.881741    -28.70928 
    8250    4.4636722   -7.1057477   0.15713516   -6.8820857   -100.49553 
    8260    5.1974226   -7.1070477     0.148295   -6.8812901   -140.48427 
    8270    5.5378834   -7.0792108   0.11680872   -6.8798652   -101.35624 
    8280    3.2849303   -7.0347472   0.10689111   -6.8788973   -57.259337 
    8290    6.0093147   -7.1002265   0.13053588   -6.8801275   -86.638983 
    8300    11.591985   -7.2045178   0.14900208   -6.8827482   -119.71411 
    8310    12.926408    -7.218955   0.14350314    -6.882796   -61.942634 
    8320    8.5672935   -7.1508057   0.14353796   -6.8795804    29.929689 
    8330    4.4228597   -7.1050212   0.16260119   -6.8765015    33.243826 
    8340    5.2295266   -7.1248153   0.17068802   -6.8761862   -29.230835 
    8350    4.5216745   -7.0932453   0.14680058   -6.8790535    -19.90236 
    8360    4.1269705   -7.0695148   0.12366291   -6.8843433     44.14776 
    8370     8.097119   -7.1337778    0.1278118   -6.8852861    17.232021 
    8380    12.437079   -7.2101425   0.14435123   -6.8804284   -103.38634 
    8390    13.004713   -7.2160982   0.14618739    -6.876088    -159.1241 
    8400    7.9829026   -7.1246714   0.12990741   -6.8757864    -96.33162 
    8410     4.663913   -7.0700445   0.12226553   -6.8782678   -64.809854 
    8420    5.7493571   -7.0979283   0.13181312   -6.8804265   -137.69322 
    8430    5.3723317   -7.0991015   0.13814559   -6.8808864   -172.94165 
    8440    5.6129582   -7.0908786   0.12775784    -6.879465     -76.6552 
    8450    9.1041178   -7.1362332   0.12216475   -6.8783802    29.802235 
    8460    13.127191   -7.2212384   0.14503598   -6.8805541     19.89373 
    8470    12.293416   -7.2461606    0.1806601   -6.8822788   -25.059591 
    8480    7.2902354   -7.1716112   0.18130871   -6.8816484    23.259672 
    8490     6.205789   -7.1259641   0.15341543   -6.8800573    97.530879 
    8500     6.453395   -7.1152902   0.13961401   -6.8794944    61.779287 
    8510    5.9821453   -7.1185597   0.14711088   -6.8822906   -58.936978 
    8520     6.758106   -7.1281842   0.14104975   -6.8864113   -113.65445 
    8530    8.9456284   -7.1342716   0.11366601   -6.8872795   -76.762641 
    8540     11.47377    -7.163353    0.1087286   -6.8836188   -85.375668 
    8550     9.862711    -7.160579   0.13167297   -6.8819116   -178.39966 
    8560    5.8648631   -7.1139556   0.14314936    -6.883396   -224.40356 
    8570    5.1180223   -7.0850343   0.12331737   -6.8854376    -147.1937 
    8580    5.9459536   -7.0878679   0.11258267   -6.8866664   -57.074146 
    8590    6.7024041   -7.1182417   0.13209251   -6.8862563   -63.354564 
    8600    7.0195119   -7.1462102   0.15530003   -6.8862911   -80.620477 
    8610     8.627401   -7.1716543   0.15365763   -6.8894134    14.055496 
    8620    10.271794   -7.1986218   0.15329937   -6.8922311    143.71965 
    8630    8.0330922   -7.1831123   0.17206992   -6.8913168    146.31732 
    8640    6.7783143   -7.1780082   0.18786687    -6.889117    36.245296 
    8650    7.6586117   -7.1744177   0.16978929   -6.8904841   -16.412871 
    8660    8.0471193   -7.1495883   0.13523812   -6.8944155    13.962782 
    8670    7.1311583   -7.1228549   0.11840867    -6.898163   -22.110544 
    8680    6.0616894   -7.1075284    0.1203319   -6.8968527   -155.38469 
    8690     7.106788   -7.1239022   0.12292026   -6.8950621   -229.94019 
    8700    7.8656412   -7.1277468   0.11374453   -6.8967724   -174.50494 
    8710    6.8857452   -7.1099756   0.10880509    -6.898545    -129.1616 
    8720    6.4190137   -7.1141785   0.11972903   -6.8987802   -182.89562 
    8730     6.887376   -7.1384473   0.13753233   -6.8982652   -209.17203 
    8740    8.5170732   -7.1674215   0.14021814   -6.9002644   -102.29396 
    8750     8.688879   -7.1672206   0.13339273   -6.9043284    34.899635 
    8760     6.562496   -7.1483624   0.14219924   -6.9083553    74.177581 
    8770    5.8390885   -7.1696659   0.17567396   -6.9069659    66.643912 
    8780    5.4527363    -7.180338   0.19332115    -6.905749     120.6359 
    8790    6.1623287   -7.1737034    0.1748471   -6.9070126    174.07305 
    8800    7.8733544   -7.1808081   0.15356873   -6.9098945    106.00461 
    8810     9.384802   -7.2059701   0.15503116   -6.9110674   -42.654302 
    8820    8.9870508   -7.1958982   0.15016803   -6.9117867   -126.48521 
    8830    5.7848916   -7.1179679   0.11783861    -6.913911    -118.6172 
    8840    3.4012261   -7.0629408  0.094664385   -6.9175844   -132.66224 
    8850    2.8557324   -7.0652439   0.10547286   -6.9172091   -209.24562 
    8860    3.3887293   -7.0897569   0.12402611    -6.915225   -253.80748 
    8870    4.9698104   -7.1085934   0.11911067   -6.9154124   -204.06374 
    8880     6.355633   -7.1219994   0.10937306   -6.9179017   -128.41816 
    8890    8.4524493   -7.1727613    0.1271028   -6.9196827   -103.76075 
    8900    9.8665184   -7.2245361   0.15678675   -6.9206983   -83.018893 
    8910    7.5794598   -7.1990687   0.16313457   -6.9229694    15.632297 
    8920    4.1688794   -7.1459334   0.15587924    -6.927921    148.42514 
    8930    1.9062037    -7.122718   0.16599617   -6.9283117    199.82507 
    8940    3.4596281   -7.1635903   0.18641498   -6.9256129    142.47053 
    8950    6.9214363   -7.2139713   0.18493618   -6.9258777    66.552859 
    8960    9.4390639   -7.2274331   0.15688114   -6.9298717     26.17518 
    8970    10.569985   -7.2232524   0.13341156   -6.9323053   -30.762962 
    8980    8.3011664   -7.1811648   0.12444557   -6.9329982   -132.31951 
    8990    4.7747419   -7.1268967   0.12085453   -6.9348792   -212.45037 
    9000    1.9635155   -7.0780125   0.10996769   -6.9387805   -210.63817 
    9010    1.0802833   -7.0530923  0.099205154   -6.9377865   -178.27442 
    9020    2.8226303   -7.0811776   0.10361502    -6.935494   -190.69213 
    9030    5.1556726   -7.1367008   0.12286927   -6.9369912   -212.37849 
    9040    7.6252298   -7.1923499   0.13829561   -6.9404075   -162.73916 
    9050    9.7996719   -7.2259869   0.13839864   -6.9415335   -53.120818 
    9060    8.9879419   -7.2190202   0.14239819   -6.9426653    36.237425 
    9070    5.8804693   -7.2023904   0.16684126   -6.9479064    79.693934 
    9080    1.7781346   -7.1659593   0.18903344   -6.9504244    123.32554 
    9090    1.0161161   -7.1414311   0.17880271   -6.9474841    167.32638 
    9100    4.1359619   -7.1673307   0.15836354   -6.9473246    149.09058 
    9110    7.1107766   -7.2138454   0.15663169   -6.9512344    50.535397 
    9120    8.9183175   -7.2474316   0.16222435   -6.9522882   -65.050981 
    9130     8.227921   -7.2157183   0.14097161   -6.9521174   -125.83701 
    9140     6.065999   -7.1574472   0.11077751   -6.9562617    -143.1301 
    9150    3.4677742    -7.116241   0.10425495   -6.9603021    -170.2308 
    9160    1.3599525   -7.0948862    0.1167617   -6.9578557   -213.72295 
    9170    1.7082779   -7.1010148   0.11809698   -6.9574575   -226.00199 
    9180    3.4871784   -7.1214249   0.10797227   -6.9614795   -178.74771 
    9190    5.7972934   -7.1626672   0.11490214   -6.9613619   -115.73395 
    9200    8.0979368   -7.2246944   0.14365276   -6.9603496   -85.787553 
    9210    8.4268142   -7.2541243   0.16308773   -6.9654429   -52.565328 
    9220    7.0888048    -7.236099   0.16039306   -6.9700541    41.841712 
    9230    4.1442092   -7.1896747   0.15965835   -6.9682508    150.84214 
    9240    2.1016971   -7.1741175   0.17288847   -6.9699052    162.63569 
    9250    3.2402186    -7.202439   0.18011252   -6.9740341    81.937624 
    9260    5.3124019   -7.2149297   0.16382593   -6.9719275    23.700263 
    9270     6.978618   -7.2184468   0.14279736   -6.9716397    7.2713577 
    9280    6.7828721   -7.2117887   0.13383891   -6.9768575   -49.661677 
    9290    5.8475553   -7.1988471   0.13332695   -6.9783679   -154.55024 
    9300    4.7545652   -7.1750939   0.12715397   -6.9770776    -208.4533 
    9310     3.264116   -7.1433606   0.11336423   -6.9813479   -175.05808 
    9320    2.7738138   -7.1314241   0.10633236   -6.9837507   -140.66203 
    9330    3.0878141   -7.1427572   0.11617205   -6.9805642   -163.74942 
    9340    4.0249909   -7.1760113   0.13303681   -6.9829858   -177.50906 
    9350    5.4524824   -7.2068566   0.13824446   -6.9873481   -103.10453 
    9360    5.7998699   -7.2087979   0.13719504   -6.9851613     6.667051 
    9370    5.5724566   -7.2239293   0.15357003   -6.9873071    44.768598 
    9380    4.6367365   -7.2403097   0.17840376   -6.9927998    36.347466 
    9390    3.5502885   -7.2213572   0.17749833   -6.9909452    70.393637 
    9400    3.5876729   -7.2001649   0.15518587   -6.9915082    114.34067 
    9410    3.9281451   -7.2019702   0.14689629   -6.9965287    74.343135 
    9420    4.6549555   -7.2199965   0.15611138   -6.9945075   -34.853132 
    9430    4.3364482   -7.2104987   0.15193828   -6.9939297   -106.14815 
    9440    3.8372649   -7.1841459    0.1280952   -6.9988599   -102.29497 
    9450    3.9379993   -7.1729711   0.11616811   -6.9981109   -98.914338 
    9460    3.9596123    -7.183238   0.12661919   -6.9976046   -155.39839 
    9470    4.1987439   -7.2002672   0.13453855   -7.0031504   -201.74606 
    9480     4.053606   -7.1850526     0.121588   -7.0030495   -149.80304 
    9490    3.5622375   -7.1708001   0.11546789   -7.0022404   -68.510593 
    9500     3.621339   -7.1959935   0.13436974   -7.0076511   -61.669633 
    9510    3.3475587   -7.2118891   0.15553135   -7.0064656   -77.161413 
    9520    3.3691535   -7.2123318    0.1569508    -7.005167   -20.853792 
    9530    3.6804232   -7.2181212   0.15289731   -7.0103707    70.767321 
    9540    4.1729715   -7.2309417   0.15908288   -7.0096646    86.656326 
    9550    4.7205018   -7.2462887   0.16655811    -7.009376    14.845243 
    9560    4.1314633   -7.2354655   0.15890188   -7.0149881   -29.910426 
    9570    3.4660066   -7.2061121    0.1408561   -7.0135985   -5.4133423 
    9580    2.4987793   -7.1822296     0.132232   -7.0127557    -18.09316 
    9590    1.7947538    -7.179614   0.13628433   -7.0165806   -108.43064 
    9600    2.0732914   -7.1847095   0.13974723   -7.0140619    -161.4886 
    9610    2.9318093    -7.190988   0.13243794   -7.0148542   -121.83772 
    9620    4.2843485   -7.2082094   0.12484918   -7.0195061   -79.629596 
    9630    4.7630777   -7.2165628   0.12758784   -7.0179858   -101.23172 
    9640    3.8165891   -7.2174429   0.13998821    -7.020572   -126.44157 
    9650    2.6697979   -7.2080978   0.14392795    -7.024379   -71.279564 
    9660     1.464107   -7.1805895   0.13776691   -7.0210015    12.030481 
    9670    1.1854966   -7.1832178   0.14241323   -7.0231359    15.562233 
    9680    1.7165035    -7.211039   0.16126885   -7.0241873   -23.882636 
    9690    3.0009724   -7.2340024   0.16746422   -7.0218116   -14.636537 
    9700      4.59182   -7.2462165   0.15148293   -7.0262968    20.728834 
    9710    4.5533395   -7.2317699   0.13675202   -7.0271547    7.1991291 
    9720    3.3773972   -7.2184586   0.14180204   -7.0263197    -62.51006 
    9730    1.8159806   -7.2048338   0.14756938   -7.0301989   -105.92345 
    9740   0.82268589    -7.174803   0.13476198   -7.0277797   -81.961119 
    9750    0.8361533   -7.1643422   0.12418727   -7.0276929   -65.927064 
    9760    1.4934845    -7.187009    0.1346438   -7.0301062   -98.405013 
    9770     3.200017   -7.2245668   0.14875344   -7.0281201   -120.12132 
    9780    4.5317752   -7.2433421   0.14424766   -7.0315526   -84.896554 
    9790    4.2046935   -7.2294881   0.13258034   -7.0342408   -26.306882 
    9800    2.8740811   -7.2133155   0.13737611   -7.0331039    -13.86799 
    9810    1.2599469   -7.2076643   0.15236698    -7.036519   -38.586825 
    9820   0.64471747   -7.1988951   0.15469223   -7.0345939    -29.13615 
    9830   0.80371456   -7.1922788   0.14616291   -7.0341373    6.0085474 
    9840     1.719905   -7.2073354   0.14545454   -7.0362473     1.297338 
    9850    3.4574939   -7.2371668   0.15118195   -7.0344542   -49.397015 
    9860    4.2018586   -7.2495715   0.14936851   -7.0375782   -85.405153 
    9870    3.5710232   -7.2292872   0.13683561   -7.0392288   -70.412168 
    9880    2.0153472   -7.1956672    0.1274195   -7.0382108   -59.081981 
    9890   0.89436542   -7.1851504   0.13111154   -7.0407092   -92.495164 
    9900   0.74065656   -7.1898928   0.14034138   -7.0385127   -116.31451 
    9910   0.86049266   -7.1955333   0.14338492   -7.0393235   -88.626609 
    9920    1.9040813   -7.2092582   0.14035072    -7.040529   -43.576737 
    9930    3.3254219   -7.2305222   0.14132686   -7.0396331    -32.96574 
    9940    3.7515991   -7.2500659   0.15091521   -7.0432367   -43.405766 
    9950    2.9775737   -7.2434574   0.15544096   -7.0436386   -22.756598 
    9960    1.6428245   -7.2150729   0.14646842   -7.0441198    12.036525 
    9970    1.1310782   -7.2028126   0.14008416   -7.0458708     9.824025 
    9980    1.0462682   -7.2063389   0.14723877   -7.0435065   -28.730528 
    9990    1.1932983    -7.218771   0.15613363   -7.0448524   -62.147079 
   10000     2.221928   -7.2242114   0.14646587   -7.0446298   -65.644151 
   10010    3.1448022   -7.2227801   0.13048922   -7.0454206   -68.520459 
   10020    3.3046867   -7.2273316   0.13006576   -7.0480126   -92.893903 
   10030    2.3620241   -7.2202737   0.13805816   -7.0470119   -116.04983 
   10040     1.487753   -7.2065092    0.1355082   -7.0488275   -111.25557 
   10050    1.4651776   -7.1977262   0.12757168   -7.0483174   -80.776723 
   10060    1.3797289   -7.2030314   0.13424223   -7.0482256   -58.707346 
   10070    1.5323464   -7.2251691   0.15316303   -7.0491679   -55.138411 
   10080     2.212137   -7.2404371   0.15899999   -7.0484673   -40.579772 
   10090    2.8393066   -7.2430717    0.1498377   -7.0509168   -1.3566839 
   10100    2.7371645   -7.2383039   0.14585088   -7.0516582    31.836064 
   10110    1.9274712   -7.2337994   0.15262677   -7.0524455     19.13523 
   10120    1.8192994   -7.2362434   0.15538521   -7.0537433   -20.197529 
   10130    1.9235981   -7.2269837   0.14588254   -7.0524318   -36.594632 
   10140    1.6089182   -7.2161973   0.13844546   -7.0537724   -38.074064 
   10150    1.5751417   -7.2156984   0.13941233   -7.0528101   -67.356504 
   10160     1.905403   -7.2231299   0.14103367    -7.053698    -118.9892 
   10170    2.3860254   -7.2248514   0.13431353   -7.0549764   -135.13305 
   10180    2.0993652   -7.2112846   0.12476938   -7.0552261   -104.97001 
   10190    1.6177961   -7.2056053   0.12424208   -7.0572515   -87.221497 
   10200    1.8920801   -7.2184037   0.13426467   -7.0559394   -101.58959 
   10210    2.0773877   -7.2331525   0.14499158   -7.0571994   -96.489649 
   10220    1.8559388   -7.2318857   0.14740433   -7.0568203   -40.133277 
   10230    1.5574827    -7.228658   0.14843297   -7.0570122    15.093913 
   10240    1.6995064    -7.240335   0.15678953   -7.0582159    18.654529 
   10250    1.9959065   -7.2520225   0.16417739    -7.058098    3.5210361 
   10260    1.6603298    -7.242648   0.15685528   -7.0610471     14.42548 
   10270    1.8441288   -7.2295331   0.14223074   -7.0598174    28.479805 
   10280    2.3799884   -7.2375241   0.14075594   -7.0612967   -9.4410409 
   10290    2.2702407   -7.2425298   0.14835509   -7.0603389   -77.804064 
   10300    1.6242187   -7.2298492   0.14519846   -7.0604433   -111.24585 
   10310    1.1513794    -7.208264   0.12974644   -7.0613574   -101.34526 
[...]
   17510   0.99278263   -7.2111266   0.13183057   -7.0644995   -75.748462 
   17520    1.3624878   -7.2269255   0.13946935   -7.0671496   -74.719951 
   17530    1.3320875   -7.2328323   0.14783231   -7.0651465   -64.103728 
   17540    1.1046959   -7.2290306    0.1442855   -7.0682806   -33.932431 
   17550    1.6261513   -7.2301938   0.14046162   -7.0654959    3.3696752 
   17560    1.9489601   -7.2485275   0.15142799   -7.0680522    9.9946862 
   17570    1.3110304   -7.2487124    0.1638117    -7.065361   -5.7125118 
   17580      1.01653   -7.2426289   0.15998019   -7.0674983   -21.389559 
   17590    1.3373462   -7.2306718   0.14502902    -7.065711   -19.117057 
   17600    1.5884674   -7.2304906   0.13847998   -7.0683361   -32.426365 
   17610    1.1575619   -7.2222408   0.13843149   -7.0665569   -70.737277 
   17620   0.95740777   -7.2181063    0.1351867   -7.0686503   -107.83738 
   17630     1.459048    -7.216776    0.1283365   -7.0666938   -106.95453 
   17640    1.5302689   -7.2194125   0.12850003   -7.0681053   -94.927348 
   17650     1.164603   -7.2200081   0.13620101   -7.0664498   -102.82505 
   17660    1.0390629   -7.2264984   0.14307578   -7.0679364   -116.05713 
   17670    1.4763189   -7.2307081   0.14184179   -7.0668631   -87.346347 
   17680    1.7107915   -7.2332834   0.13899474    -7.068791   -34.555323 
   17690    1.0782167   -7.2256294   0.14185782   -7.0677018   -4.8848978 
   17700   0.83912129   -7.2340232   0.15213584    -7.069381   -9.5736516 
   17710    1.1935861    -7.244087   0.15858087   -7.0677169   0.18257068 
   17720    1.2293397   -7.2433693   0.15608054   -7.0689666    26.319974 
   17730     1.123287   -7.2359568    0.1520023    -7.067213    25.248773 
   17740    1.3638795    -7.243017   0.15376106   -7.0689286   -25.347526 
   17750    1.8963362   -7.2469866   0.15119752    -7.067526   -70.258377 
   17760    1.5502135   -7.2295166   0.13671016    -7.069702   -77.304962 
   17770   0.75335228    -7.201857   0.12272508   -7.0679039   -74.495595 
   17780   0.64505978   -7.2051734   0.12547147   -7.0700879   -107.67581 
   17790   0.92019945   -7.2169063    0.1351322   -7.0680594   -141.16935 
   17800    1.1366485   -7.2221138   0.13532104   -7.0698521   -131.54479 
   17810    1.1321703   -7.2146374    0.1299009   -7.0678626   -86.973741 
   17820    1.5097823   -7.2292631   0.13710444   -7.0696568   -66.935514 
   17830     2.096954   -7.2501747   0.15069794   -7.0682236   -66.773103 
   17840    1.6199901   -7.2468034    0.1522417   -7.0704173   -39.970018 
   17850   0.79720084   -7.2252709   0.14436026   -7.0690291    21.402117 
   17860   0.59803642   -7.2282205   0.14845844   -7.0708489    51.435489 
   17870   0.96557487   -7.2453064   0.16183975   -7.0690757    23.356397 
   17880    1.3079397   -7.2538158   0.16464254   -7.0696797    -13.57422 
   17890     1.464959   -7.2419061   0.15129383   -7.0687784   -14.254084 
   17900    2.0528818   -7.2416464   0.14133617    -7.069714   -19.909612 
   17910    2.1035649   -7.2400327   0.13945018   -7.0692308   -71.696902 
   17920    1.2402848   -7.2246249   0.13590449   -7.0702352   -128.85382 
   17930   0.53918499   -7.2037033   0.12606587   -7.0696013   -128.96618 
   17940   0.49496213   -7.1985448   0.12108289   -7.0700849   -100.38072 
   17950    1.0095619   -7.2123188    0.1276648   -7.0696074   -107.99307 
   17960    1.2793474   -7.2269056   0.13839552   -7.0694426   -135.20998 
   17970    1.5153605   -7.2351364   0.14302415   -7.0695272    -109.7865 
   17980    2.1410003   -7.2434911   0.14221744    -7.069364   -38.651427 
   17990     2.077257   -7.2464594   0.14472194   -7.0707779    1.4979389 
   18000    1.2094522    -7.239998   0.15247426    -7.069498   -4.3120376 
   18010   0.39943306   -7.2368926   0.15914525   -7.0717941    2.4668332 
   18020   0.53604641   -7.2336249   0.15631945   -7.0693161    42.743567 
   18030     1.185195    -7.240662   0.15179348   -7.0712043    45.654054 
   18040    1.3907231   -7.2425531   0.15266919   -7.0691565   -10.727879 
   18050     1.805581    -7.251933   0.15481836   -7.0702042   -70.137843 
   18060    2.1319505   -7.2460258   0.14420226   -7.0700488   -77.754639 
   18070    1.6790555   -7.2217685   0.12725337   -7.0694904   -74.347561 
   18080   0.84281682   -7.2071439   0.12284467   -7.0717378   -110.03875 
   18090   0.33276984   -7.2036936   0.12993256   -7.0688014   -146.87504 
   18100   0.71628176   -7.2153091   0.13282685   -7.0718068   -137.77067 
   18110    1.1707053   -7.2142544   0.12788835   -7.0689178   -92.744585 
   18120    1.3538843   -7.2230931   0.13256824   -7.0703465   -75.665563 
   18130    1.7993327   -7.2455708    0.1487497   -7.0700038   -77.793657 
   18140    2.0621217   -7.2561595   0.15633986   -7.0690857   -47.752846 
   18150    1.7048394   -7.2468905   0.14958272   -7.0718988    12.186547 
   18160    0.8052089   -7.2267913   0.14591834   -7.0688721    48.449084 
   18170   0.50189067   -7.2355068   0.15606448   -7.0719621    25.227835 
   18180    1.0976798   -7.2481392   0.16228841   -7.0694909   -4.1510401 
   18190     1.358846   -7.2435904   0.15368301   -7.0696551   -7.4033749 
   18200    1.4785744   -7.2358213   0.14321287   -7.0705716    -16.18738 
   18210    1.6830093   -7.2350117   0.14154947   -7.0683786   -61.997044 
   18220    1.7277067   -7.2381486   0.14127041   -7.0711283   -116.96015 
   18230    1.3236353   -7.2207086    0.1320517   -7.0689293   -121.85712 
   18240   0.68049597   -7.2032944   0.12282242   -7.0703298   -100.06037 
   18250   0.74107094   -7.2061196   0.12440884   -7.0706658   -103.01274 
   18260    1.1189949   -7.2193342   0.13397515   -7.0686815   -121.66218 
   18270    1.1948877   -7.2305773   0.14189148   -7.0708771   -107.44928 
   18280    1.2694018   -7.2309911   0.14318407   -7.0688878   -52.049911 
   18290    1.4125843   -7.2359927   0.14508382   -7.0698557   -14.620345 
   18300    1.6230582    -7.246064   0.15164509   -7.0702288   -12.606454 
   18310    1.2553558   -7.2452674   0.15753244    -7.069025   -4.4665342 
   18320   0.80596301    -7.238162   0.15507707   -7.0710728    21.765957 
   18330    1.0936872   -7.2330351   0.14751269    -7.069222    28.949407 
   18340    1.3219003   -7.2362341   0.14690693   -7.0696255   -8.9002639 
   18350    1.2019874   -7.2395807   0.15222208   -7.0694442   -54.969121 
   18360   0.96424933   -7.2320321   0.14914173   -7.0685192   -71.020866 
   18370     1.139696    -7.222204   0.13563539   -7.0695826   -74.893668 
   18380    1.3964214   -7.2171285   0.12746422    -7.068852   -93.687971 
   18390    1.1844077   -7.2192315    0.1320734   -7.0695056     -117.738 
   18400    1.1767816   -7.2236338   0.13628789   -7.0698071    -116.7374 
   18410    1.3870072   -7.2205601    0.1309719   -7.0689161   -90.274897 
   18420    1.3588713   -7.2208437    0.1307383   -7.0698527   -67.872388 
   18430    1.0914699   -7.2289087   0.14412649   -7.0685148   -59.605466 
   18440    0.7608274   -7.2369197   0.15673262   -7.0688476   -48.301866 
   18450     1.110553   -7.2391974   0.15312671   -7.0695189   -18.692161 
   18460    1.4452857   -7.2345522   0.14490165   -7.0681099     12.05847 
   18470    1.4161545   -7.2391107   0.14821599   -7.0697883    11.508572 
   18480    1.5321768   -7.2466253   0.15476731   -7.0690224   -14.760543 
   18490    1.5975916   -7.2413374   0.14984062   -7.0676862   -35.220244 
   18500    1.3886591   -7.2307041   0.14066385   -7.0693436   -39.682241 
   18510   0.71804765   -7.2172386   0.13926125   -7.0672755   -50.038987 
   18520   0.49262696   -7.2181748   0.14340165    -7.067431   -85.267443 
   18530    1.0276031   -7.2258405   0.14136623   -7.0691588   -111.58139 
   18540    1.4227186   -7.2203888   0.13218428   -7.0670003   -95.769734 
   18550    1.6724778   -7.2220286   0.12902551   -7.0680763   -71.811878 
   18560    1.7636249    -7.231132    0.1352147   -7.0696322   -74.120227 
   18570    1.6411401   -7.2340539   0.14314262   -7.0664516   -80.877944 
   18580    1.1973239   -7.2318395   0.14601692   -7.0679776   -58.429234 
   18590   0.37957168   -7.2196134   0.14537357   -7.0685827   -17.138617 
   18600   0.39410265   -7.2198642    0.1481167   -7.0658738   -5.2437961 
   18610    1.0721989   -7.2385187   0.15448582   -7.0680527   -27.941201 
   18620    1.6873053   -7.2469824   0.15307052   -7.0687642   -33.886666 
   18630    2.0056581   -7.2381614   0.14244876   -7.0658202   -15.118046 
   18640    1.9191091   -7.2330217   0.13657881   -7.0678404   -21.839776 
   18650    1.7143746   -7.2359627   0.14260096   -7.0678107   -63.991648 
   18660   0.94891887   -7.2262038   0.14724224   -7.0648189   -92.783995 
   18670   0.22133275   -7.2099279   0.14013811   -7.0664911   -82.868182 
   18680   0.47930486   -7.2064563   0.13209803   -7.0672147   -64.966959 
   18690    1.2475032    -7.220263   0.13668588   -7.0649842   -74.885776 
   18700    1.9805845   -7.2415946   0.14541423   -7.0666617   -92.990891 
   18710    2.1654498   -7.2415798   0.14152834   -7.0677775   -71.154905 
   18720    2.0573848    -7.229828    0.1341273   -7.0650373    -24.64636 
   18730    1.7160742   -7.2336149   0.14221585   -7.0658226   -14.335091 
   18740   0.76080618   -7.2348503   0.15674586   -7.0667654   -39.276971 
   18750   0.26311573   -7.2246455   0.15605585   -7.0646682   -42.910077 
   18760   0.65876457    -7.218917   0.14409534   -7.0650034   -15.019273 
   18770    1.5791205   -7.2310697   0.14098315   -7.0665512   -10.477189 
   18780    2.2350541   -7.2444148    0.1459438   -7.0651596   -53.286342 
   18790    2.1220865   -7.2398326   0.14346743   -7.0647375   -89.819096 
   18800    1.9516922   -7.2283475   0.13343973   -7.0658196   -76.966664 
   18810    1.4154088   -7.2166037   0.13106638    -7.064442   -56.276838 
   18820   0.59428106   -7.2120685   0.13956426    -7.063647   -80.542025 
   18830    0.2989615   -7.2145385   0.14585895   -7.0642238   -111.42355 
   18840   0.81631614   -7.2178822   0.14182793   -7.0638879   -83.616484 
   18850    1.8176536   -7.2282913   0.13769974   -7.0635012   -28.163418 
   18860    2.1695558   -7.2385634   0.14173879   -7.0644894   -19.475358 
   18870    2.0059196   -7.2435619   0.14937471   -7.0642909    -44.50881 
   18880    1.8780471   -7.2422954   0.15153465   -7.0627703   -32.245841 
   18890    1.2996509   -7.2308482   0.14791795   -7.0635602     10.78469 
   18900   0.68373456   -7.2207168   0.14690941   -7.0636169    8.0216043 
   18910   0.50347259   -7.2199996   0.15063957   -7.0618562   -47.826802 
   18920    1.1872424   -7.2306668   0.15069292   -7.0622791   -80.326898 
   18930     2.029667   -7.2335762   0.13936247   -7.0639634   -60.566547 
   18940    2.0150673    -7.219973   0.12739251   -7.0625479   -53.488276 
   18950    1.8900157   -7.2181562   0.12927057   -7.0607168   -97.859807 
   18960    1.7029311   -7.2264529   0.13884463   -7.0622277    -131.5459 
   18970    1.3662995   -7.2213845   0.13841005    -7.062611    -101.2597 
   18980   0.93604837   -7.2063985   0.13245215   -7.0599955   -55.666825 
   18990   0.80035713   -7.2100603   0.13838008   -7.0597517   -56.071249 
   19000    1.5677496   -7.2391361   0.15369095   -7.0620793    -69.95945 
   19010    2.0423684   -7.2471616   0.15500313   -7.0617189   -33.407506 
   19020    1.7676119   -7.2289185   0.14349687   -7.0590771    26.474753 
   19030    1.6745522   -7.2281745    0.1434209    -7.059796    33.339438 
   19040    1.7148113   -7.2446089   0.15695077   -7.0621005   -9.7305994 
   19050    1.6807983   -7.2452108   0.15999431   -7.0601658   -33.185641 
   19060     1.164138   -7.2207203   0.14582177   -7.0575481   -22.067213 
   19070    1.1511726   -7.2122122   0.13643735   -7.0586177   -35.748165 
   19080    1.7025462   -7.2257979   0.13966871   -7.0607543   -92.908469 
   19090    1.6852103   -7.2226558   0.13830521   -7.0592341   -131.20523 
   19100    1.4390917   -7.2046014   0.12630874   -7.0568444   -113.39429 
   19110    1.3731072   -7.1986118   0.12027891   -7.0578681   -88.677749 
   19120    1.7205578   -7.2152013   0.12979904    -7.059759    -104.4972 
   19130    1.8746994   -7.2288263   0.14265681   -7.0582289   -120.01968 
   19140    1.3790596    -7.222068    0.1456691   -7.0558453   -78.440884 
   19150    1.4898757   -7.2233004   0.14491504   -7.0561802   -12.272787 
   19160    1.8052446   -7.2347503   0.14969761   -7.0581472    11.766145 
   19170    1.4903286    -7.237074   0.15711434   -7.0577477    1.9519185 
   19180    1.1276224   -7.2310009   0.15841423   -7.0557806    14.151784 
   19190    1.4559681   -7.2296223   0.15208913   -7.0558333    42.553903 
   19200    2.4187914   -7.2402368   0.14719317   -7.0569939    25.372153 
   19210    2.3671419   -7.2398179    0.1485599    -7.055978   -40.110674 
   19220     1.780024   -7.2306959   0.14983743   -7.0543289   -89.179089 
   19230    1.7301512   -7.2198838   0.14040074   -7.0536968   -93.339521 
   19240    1.5969041   -7.2035126   0.12508274   -7.0546295   -96.267439 
   19250    1.2320684   -7.1940262   0.12040543   -7.0552579   -127.88499 
   19260   0.91633188   -7.1950989   0.12736467   -7.0540772   -150.01565 
   19270    1.5621104   -7.2079414   0.13129275   -7.0533669   -127.79664 
   19280    2.6830088    -7.222236   0.12847274   -7.0537756   -87.166154 
   19290    2.6370462   -7.2272961   0.13444998   -7.0535434   -64.530118 
   19300    2.1854181   -7.2385433   0.15384281   -7.0521289   -49.471829 
   19310    1.9338935   -7.2452322   0.16535273   -7.0510566   -11.395552 
   19320    1.6466873    -7.232514   0.15630058   -7.0516711    40.142983 
   19330    1.0061015   -7.2164087   0.14819132   -7.0532224    63.637337 
   19340   0.84673524   -7.2211183     0.155046   -7.0534525    42.233357 
   19350    2.3320213   -7.2471607   0.16144901   -7.0509552    1.8976627 
   19360    3.3141956   -7.2482587   0.14994287   -7.0489209   -25.511791 
   19370    2.7899245   -7.2274251   0.13640951   -7.0494344     -48.7918 
   19380    2.0520607   -7.2176688   0.13652308   -7.0505617   -91.714043 
   19390    1.6400381   -7.2131028   0.13863984   -7.0500198   -140.08272 
   19400    1.3847294   -7.1967296   0.12790993   -7.0481816   -153.53432 
   19410   0.71973578   -7.1725804   0.11517474   -7.0466787   -128.63574 
   19420   0.91107564   -7.1789499   0.11773864   -7.0476325   -111.31333 
   19430     2.458377   -7.2186858   0.13238004    -7.049666   -118.63259 
   19440    3.4538991   -7.2442007   0.14323812   -7.0494855   -105.10731 
   19450    3.1669316    -7.240658     0.146455   -7.0470029   -43.021429 
   19460    2.2298937   -7.2296656   0.15202615    -7.044405    22.977284 
   19470    1.9033377   -7.2343729   0.16212672   -7.0438788    41.248041 
   19480    1.5456458   -7.2356629   0.16694396   -7.0456825    32.783849 
   19490   0.76370612   -7.2175429   0.15819357    -7.047967    42.272932 
   19500    1.7357177   -7.2202182   0.14669972   -7.0476492    47.516132 
   19510    3.4649029   -7.2404089   0.14400322   -7.0447646    2.7508554 
   19520    3.8167053   -7.2477337   0.14886719   -7.0419821   -72.824361 
   19530     2.794263    -7.228056   0.14539644   -7.0410137   -114.80431 
   19540    1.9032922   -7.2005752   0.13040749    -7.041801   -113.40301 
   19550    1.9499425   -7.1926151   0.12037125   -7.0431818   -120.87928 
   19560    1.4105008   -7.1886249   0.12425746   -7.0433452   -152.55307 
   19570   0.85845673   -7.1832065   0.12849721   -7.0419148   -159.54496 
   19580    1.7733118   -7.1901324   0.12341382   -7.0402891   -114.22997 
   19590    3.3315823   -7.2131668   0.12402206   -7.0394906   -61.087729 
   19600    3.9737652   -7.2434676   0.14503561   -7.0392068   -44.672623 
   19610    2.8054839   -7.2482598   0.16731201   -7.0391347   -34.627413 
   19620    1.9734872   -7.2344505   0.16603181   -7.0390058    14.268195 
   19630    2.2322705   -7.2255759   0.15380088   -7.0385051    73.255169 
   19640    1.5413828   -7.2144321   0.15390223    -7.037557    74.116938 
   19650    1.3129252   -7.2167988   0.16008226   -7.0371487    13.907209 
   19660    2.4999212   -7.2263473    0.1517119   -7.0373765   -32.352631 
   19670    3.7945527   -7.2297745   0.13598963   -7.0372307   -35.711626 
   19680    3.2607794    -7.218843   0.13427476   -7.0359694   -56.219509 
   19690     1.891151   -7.2044708   0.14165955   -7.0346255   -125.10976 
   19700     2.091461    -7.202573   0.13798745   -7.0334143   -172.89893 
   19710    2.3521414   -7.1899745   0.12223591   -7.0326822    -141.5003 
   19720    1.6724384   -7.1730672   0.11567473   -7.0324663   -93.964474 
   19730    1.4440019   -7.1795926   0.12475117   -7.0333199   -105.20212 
   19740    2.3045703    -7.205127   0.13650002   -7.0342796   -124.87717 
   19750    3.7429159   -7.2318573   0.14175914   -7.0343135     -71.2353 
   19760    3.2975752   -7.2297138   0.14751278   -7.0330538    16.260455 
   19770     1.965662   -7.2200805   0.15964955   -7.0311346    37.866726 
   19780    2.4850296   -7.2368244   0.17043435   -7.0293531    5.2990903 
   19790    2.9523495   -7.2368792   0.16485522    -7.028022    13.920583 
   19800    2.2788703   -7.2083975   0.14694187   -7.0274912    55.648209 
   19810    1.8249349   -7.1917793   0.13667956   -7.0279008    30.880902 
   19820    2.9754407    -7.215568    0.1424539    -7.028768    -64.66774 
   19830    3.5174031    -7.229367   0.14799591   -7.0289476   -118.64315 
   19840    2.1280614   -7.1979636   0.13753051   -7.0287164   -93.936376 
   19850    1.8719337   -7.1826051   0.12648834   -7.0282174   -85.832972 
   19860    2.9932833   -7.2022779   0.13028824   -7.0273776   -137.93244 
   19870    3.3415455   -7.2133804   0.13780921   -7.0257686   -164.16521 
   19880    2.4491758   -7.1896364   0.12900661   -7.0241272   -105.21095 
   19890    1.6119273   -7.1651169   0.11824999   -7.0228426   -35.955317 
   19900    2.7019497    -7.193364   0.13111275   -7.0219812   -37.775469 
   19910    3.2708293    -7.228974   0.15878853   -7.0214368   -59.084155 
   19920     2.057862   -7.2180971   0.16612811   -7.0212986   -16.730698 
   19930    2.0159841   -7.2059939   0.15426124   -7.0216863    49.445364 
   19940    3.5641284   -7.2268853   0.15153066   -7.0222347    45.731262 
   19950    4.1355084   -7.2435547   0.15932789   -7.0225909   -18.177621 
   19960    2.3918416   -7.2092178   0.15120355   -7.0223662   -47.618405 
   19970    1.7609326   -7.1786103   0.13099222    -7.021373   -27.690819 
   19980     2.906593    -7.189826   0.12678329   -7.0197227   -38.527796 
   19990    2.5348329   -7.1964248   0.14057967   -7.0180658   -104.04516 
   20000     1.620345   -7.1885434   0.14740208   -7.0169916   -144.96144 
Loop time of 0.749833 on 1 procs for 20000 steps with 6 atoms

Performance: 2304.514 ns/day, 0.010 hours/ns, 26672.610 timesteps/s
66.5% CPU use with 1 MPI tasks x no OpenMP threads

MPI task timing breakdown:
Section |  min time  |  avg time  |  max time  |%varavg| %total
---------------------------------------------------------------
Pair    | 0.055858   | 0.055858   | 0.055858   |   0.0 |  7.45
Bond    | 0.011536   | 0.011536   | 0.011536   |   0.0 |  1.54
Kspace  | 0.28932    | 0.28932    | 0.28932    |   0.0 | 38.58
Neigh   | 0.023601   | 0.023601   | 0.023601   |   0.0 |  3.15
Comm    | 0.038039   | 0.038039   | 0.038039   |   0.0 |  5.07
Output  | 0.28715    | 0.28715    | 0.28715    |   0.0 | 38.29
Modify  | 0.031728   | 0.031728   | 0.031728   |   0.0 |  4.23
Other   |            | 0.0126     |            |       |  1.68

Nlocal:    6 ave 6 max 6 min
Histogram: 1 0 0 0 0 0 0 0 0 0
Nghost:    165 ave 165 max 165 min
Histogram: 1 0 0 0 0 0 0 0 0 0
Neighs:    123 ave 123 max 123 min
Histogram: 1 0 0 0 0 0 0 0 0 0

Total # of neighbors = 123
Ave neighs/atom = 20.5
Ave special neighs/atom = 2
Neighbor list builds = 2000
Dangerous builds = 0
Total wall time: 0:00:00
