LAMMPS (16 Mar 2018)
# some global params
units real
boundary p p p #all periodic
atom_style full #bonds, bends, torsions, etc
timestep 1.000000 # femtoseconds (1e-15 s)

# the atoms file
#read_restart water_pair.restart
read_data water_pair.xyz
  orthogonal box = (-5 -5 -5) to (5 5 5)
  1 by 1 by 2 MPI processor grid
  reading atoms ...
  6 atoms
  scanning bonds ...
  2 = max bonds/atom
  scanning angles ...
  1 = max angles/atom
  reading bonds ...
  4 bonds
  reading angles ...
  2 angles
  2 = max # of 1-2 neighbors
  1 = max # of 1-3 neighbors
  1 = max # of 1-4 neighbors
  2 = max # of special neighbors
#read_data SPCF_250.init
#replicate 5 5 5

# methods for potential/force calculations
kspace_style ewald/disp 1.0e-6
pair_style lj/cut/coul/long 10

# pair_characterization eps sigma cut_1 cut_2
pair_coeff 2 2 0 0.898 2.7 #H-H sigma = 2*r_min
pair_coeff 1 2 0 0.4 2.7 #O-H Mixing rules were RMS
pair_coeff 1 1 0.1521 3.166 5 #9.45 #O-O  Parameters from Jorgensen, cutoff is 3*sig

bond_style harmonic
bond_coeff * 404 1

angle_style class2
angle_coeff * 109.5 36.3758 0 0
angle_coeff 1 bb -2.414 1 1
angle_coeff 1 ba 5.4492 5.4492 1 1

#angle_style harmonic
#angle_coeff 1 36.3758 109.5 # (-0.101 mdyn/A)x100/4.1841x2

dump Dumplammps all atom 10 dump.lammps

restart 10 water_pair.1.restart water_pair.restart

compute cc1 all chunk/atom molecule
compute myChunk all dipole/chunk cc1
fix 1 all ave/time 1 1 1 c_myChunk[*] file tmp.out mode vector

thermo_style multi #print to terminal
thermo 10

#velocity all create 100 12345 rot yes mom yes dist gaussian
fix 2 all nvt temp .298 .298 1000 #tchain 2 #iso 10 10 1000 #random_number atoms_assigned ensemble thermostat start_temp end_temp gradient_step
#fix 3 all rigid/nvt molecule temp 293 293 100

run 20000
EwaldDisp initialization ...
  G vector = 0.311077   accuracy = 0.000332064
Neighbor list info ...
  update every 1 steps, delay 10 steps, check yes
  max neighbors/atom: 2000, page size: 100000
  master list distance cutoff = 12
  ghost atom cutoff = 12
  binsize = 6, bins = 2 2 2
  2 neighbor lists, perpetual/occasional/extra = 2 0 0
  (1) pair lj/cut/coul/long, perpetual
      attributes: half, newton on
      pair build: half/bin/newton
      stencil: half/bin/3d/newton
      bin: standard
  (2) pair lj/cut/coul/long, perpetual, copy from (1)
      attributes: half, newton on
      pair build: copy
      stencil: none
      bin: none
  vectors: nbox = 4, nkvec = 128
Per MPI rank memory allocation (min/avg/max) = 14.49 | 14.75 | 15.01 Mbytes
---------------- Step        0 ----- CPU =      0.0000 (sec) ----------------
TotEng   =        13.3738 KinEng   =         0.0000 Temp     =         0.0000 
PotEng   =        13.3738 E_bond   =         0.0000 E_angle  =         8.4269 
E_dihed  =         0.0000 E_impro  =         0.0000 E_vdwl   =         0.3206 
E_coul   =       115.0166 E_long   =      -110.3903 Press    =       478.1411 
---------------- Step       10 ----- CPU =      0.0013 (sec) ----------------
TotEng   =        12.7107 KinEng   =         2.5865 Temp     =       173.5463 
PotEng   =        10.1242 E_bond   =         0.0403 E_angle  =         6.6062 
E_dihed  =         0.0000 E_impro  =         0.0000 E_vdwl   =         0.1765 
E_coul   =       115.2662 E_long   =      -111.9650 Press    =      -173.6868 
---------------- Step       20 ----- CPU =      0.0022 (sec) ----------------
TotEng   =        11.4495 KinEng   =         6.0078 Temp     =       403.0975 
PotEng   =         5.4417 E_bond   =         0.3509 E_angle  =         0.9290 
E_dihed  =         0.0000 E_impro  =         0.0000 E_vdwl   =         0.1506 
E_coul   =       114.9005 E_long   =      -110.8892 Press    =      -535.1971 
---------------- Step       30 ----- CPU =      0.0033 (sec) ----------------
TotEng   =        10.3786 KinEng   =         6.2534 Temp     =       419.5796 
PotEng   =         4.1251 E_bond   =         0.3410 E_angle  =         0.1103 
E_dihed  =         0.0000 E_impro  =         0.0000 E_vdwl   =         0.0418 
E_coul   =       114.7241 E_long   =      -111.0920 Press    =      -593.5258 
---------------- Step       40 ----- CPU =      0.0048 (sec) ----------------
TotEng   =         9.4009 KinEng   =         3.7017 Temp     =       248.3684 
PotEng   =         5.6992 E_bond   =         0.0461 E_angle  =         2.7655 
E_dihed  =         0.0000 E_impro  =         0.0000 E_vdwl   =        -0.0529 
E_coul   =       114.6867 E_long   =      -111.7462 Press    =      -190.6442 
---------------- Step       50 ----- CPU =      0.0059 (sec) ----------------
TotEng   =         8.4611 KinEng   =         1.1743 Temp     =        78.7897 
PotEng   =         7.2869 E_bond   =         0.0056 E_angle  =         4.0618 
E_dihed  =         0.0000 E_impro  =         0.0000 E_vdwl   =        -0.0915 
E_coul   =       114.0160 E_long   =      -110.7051 Press    =       424.0968 
---------------- Step       60 ----- CPU =      0.0070 (sec) ----------------
TotEng   =         7.4490 KinEng   =         1.2282 Temp     =        82.4066 
PotEng   =         6.2208 E_bond   =         0.0285 E_angle  =         3.9031 
E_dihed  =         0.0000 E_impro  =         0.0000 E_vdwl   =        -0.1348 
E_coul   =       114.3502 E_long   =      -111.9263 Press    =       322.0265 
---------------- Step       70 ----- CPU =      0.0081 (sec) ----------------
TotEng   =         6.5297 KinEng   =         2.8435 Temp     =       190.7889 
PotEng   =         3.6862 E_bond   =         0.0011 E_angle  =         1.1719 
E_dihed  =         0.0000 E_impro  =         0.0000 E_vdwl   =        -0.1464 
E_coul   =       113.6985 E_long   =      -111.0388 Press    =       315.4377 
---------------- Step       80 ----- CPU =      0.0091 (sec) ----------------
TotEng   =         5.8268 KinEng   =         3.6290 Temp     =       243.4941 
PotEng   =         2.1977 E_bond   =         0.0009 E_angle  =         0.0377 
E_dihed  =         0.0000 E_impro  =         0.0000 E_vdwl   =        -0.1520 
E_coul   =       113.7671 E_long   =      -111.4559 Press    =       187.0555 
---------------- Step       90 ----- CPU =      0.0101 (sec) ----------------
TotEng   =         5.2366 KinEng   =         2.6880 Temp     =       180.3515 
PotEng   =         2.5487 E_bond   =         0.0125 E_angle  =         0.6043 
E_dihed  =         0.0000 E_impro  =         0.0000 E_vdwl   =        -0.1503 
E_coul   =       113.7605 E_long   =      -111.6783 Press    =       319.6976 
---------------- Step      100 ----- CPU =      0.0113 (sec) ----------------
TotEng   =         4.6779 KinEng   =         1.1481 Temp     =        77.0316 
PotEng   =         3.5299 E_bond   =         0.0590 E_angle  =         1.4975 
E_dihed  =         0.0000 E_impro  =         0.0000 E_vdwl   =        -0.1460 
E_coul   =       113.2490 E_long   =      -111.1295 Press    =       605.5284 
---------------- Step      110 ----- CPU =      0.0124 (sec) ----------------
TotEng   =         4.1427 KinEng   =         0.5214 Temp     =        34.9814 
PotEng   =         3.6214 E_bond   =         0.1089 E_angle  =         1.8687 
E_dihed  =         0.0000 E_impro  =         0.0000 E_vdwl   =        -0.1384 
E_coul   =       113.7231 E_long   =      -111.9410 Press    =       574.6214 
---------------- Step      120 ----- CPU =      0.0134 (sec) ----------------
TotEng   =         3.6875 KinEng   =         0.9890 Temp     =        66.3561 
PotEng   =         2.6986 E_bond   =         0.0608 E_angle  =         0.9107 
E_dihed  =         0.0000 E_impro  =         0.0000 E_vdwl   =        -0.1323 
E_coul   =       113.1375 E_long   =      -111.2782 Press    =       581.2421 
---------------- Step      130 ----- CPU =      0.0144 (sec) ----------------
TotEng   =         3.3483 KinEng   =         1.5845 Temp     =       106.3129 
PotEng   =         1.7639 E_bond   =         0.0300 E_angle  =         0.1682 
E_dihed  =         0.0000 E_impro  =         0.0000 E_vdwl   =        -0.1244 
E_coul   =       113.3991 E_long   =      -111.7090 Press    =       391.6668 
---------------- Step      140 ----- CPU =      0.0157 (sec) ----------------
TotEng   =         3.0904 KinEng   =         1.4878 Temp     =        99.8259 
PotEng   =         1.6026 E_bond   =         0.0188 E_angle  =         0.0724 
E_dihed  =         0.0000 E_impro  =         0.0000 E_vdwl   =        -0.1176 
E_coul   =       113.3192 E_long   =      -111.6903 Press    =       327.3776 
---------------- Step      150 ----- CPU =      0.0168 (sec) ----------------
TotEng   =         2.8609 KinEng   =         0.8448 Temp     =        56.6797 
PotEng   =         2.0162 E_bond   =         0.0206 E_angle  =         0.4933 
E_dihed  =         0.0000 E_impro  =         0.0000 E_vdwl   =        -0.1114 
E_coul   =       113.0382 E_long   =      -111.4246 Press    =       366.8156 
---------------- Step      160 ----- CPU =      0.0180 (sec) ----------------
TotEng   =         2.6344 KinEng   =         0.3466 Temp     =        23.2531 
PotEng   =         2.2878 E_bond   =         0.0281 E_angle  =         0.8871 
E_dihed  =         0.0000 E_impro  =         0.0000 E_vdwl   =        -0.1046 
E_coul   =       113.4149 E_long   =      -111.9376 Press    =       288.2742 
---------------- Step      170 ----- CPU =      0.0191 (sec) ----------------
TotEng   =         2.4257 KinEng   =         0.3766 Temp     =        25.2681 
PotEng   =         2.0491 E_bond   =         0.0105 E_angle  =         0.6297 
E_dihed  =         0.0000 E_impro  =         0.0000 E_vdwl   =        -0.0996 
E_coul   =       112.9441 E_long   =      -111.4356 Press    =       273.9357 
---------------- Step      180 ----- CPU =      0.0207 (sec) ----------------
TotEng   =         2.2582 KinEng   =         0.6943 Temp     =        46.5820 
PotEng   =         1.5640 E_bond   =         0.0019 E_angle  =         0.2391 
E_dihed  =         0.0000 E_impro  =         0.0000 E_vdwl   =        -0.0940 
E_coul   =       113.2490 E_long   =      -111.8320 Press    =       104.1996 
---------------- Step      190 ----- CPU =      0.0249 (sec) ----------------
TotEng   =         2.1323 KinEng   =         0.8190 Temp     =        54.9535 
PotEng   =         1.3132 E_bond   =         0.0004 E_angle  =         0.0001 
E_dihed  =         0.0000 E_impro  =         0.0000 E_vdwl   =        -0.0894 
E_coul   =       113.0963 E_long   =      -111.6942 Press    =        27.2862 
---------------- Step      200 ----- CPU =      0.0286 (sec) ----------------
TotEng   =         2.0273 KinEng   =         0.6013 Temp     =        40.3476 
PotEng   =         1.4260 E_bond   =         0.0011 E_angle  =         0.1294 
E_dihed  =         0.0000 E_impro  =         0.0000 E_vdwl   =        -0.0851 
E_coul   =       112.9834 E_long   =      -111.6028 Press    =         9.5691 
---------------- Step      210 ----- CPU =      0.0307 (sec) ----------------
TotEng   =         1.9249 KinEng   =         0.2856 Temp     =        19.1616 
PotEng   =         1.6393 E_bond   =         0.0003 E_angle  =         0.4050 
E_dihed  =         0.0000 E_impro  =         0.0000 E_vdwl   =        -0.0808 
E_coul   =       113.2300 E_long   =      -111.9152 Press    =       -28.6058 
---------------- Step      220 ----- CPU =      0.0317 (sec) ----------------
TotEng   =         1.8241 KinEng   =         0.1719 Temp     =        11.5310 
PotEng   =         1.6522 E_bond   =         0.0009 E_angle  =         0.3999 
E_dihed  =         0.0000 E_impro  =         0.0000 E_vdwl   =        -0.0774 
E_coul   =       112.8766 E_long   =      -111.5477 Press    =        10.5567 
---------------- Step      230 ----- CPU =      0.0327 (sec) ----------------
TotEng   =         1.7353 KinEng   =         0.2961 Temp     =        19.8700 
PotEng   =         1.4391 E_bond   =         0.0013 E_angle  =         0.2414 
E_dihed  =         0.0000 E_impro  =         0.0000 E_vdwl   =        -0.0738 
E_coul   =       113.1654 E_long   =      -111.8952 Press    =       -60.6715 
---------------- Step      240 ----- CPU =      0.0337 (sec) ----------------
TotEng   =         1.6653 KinEng   =         0.4374 Temp     =        29.3448 
PotEng   =         1.2279 E_bond   =         0.0033 E_angle  =         0.0263 
E_dihed  =         0.0000 E_impro  =         0.0000 E_vdwl   =        -0.0709 
E_coul   =       112.9790 E_long   =      -111.7099 Press    =       -55.2495 
---------------- Step      250 ----- CPU =      0.0347 (sec) ----------------
TotEng   =         1.6099 KinEng   =         0.4099 Temp     =        27.5007 
PotEng   =         1.2000 E_bond   =         0.0023 E_angle  =         0.0178 
E_dihed  =         0.0000 E_impro  =         0.0000 E_vdwl   =        -0.0680 
E_coul   =       112.9779 E_long   =      -111.7300 Press    =       -40.2854 
---------------- Step      260 ----- CPU =      0.0358 (sec) ----------------
TotEng   =         1.5587 KinEng   =         0.2452 Temp     =        16.4548 
PotEng   =         1.3134 E_bond   =         0.0002 E_angle  =         0.1653 
E_dihed  =         0.0000 E_impro  =         0.0000 E_vdwl   =        -0.0653 
E_coul   =       113.1165 E_long   =      -111.9033 Press    =       -14.1381 
---------------- Step      270 ----- CPU =      0.0368 (sec) ----------------
TotEng   =         1.5072 KinEng   =         0.1186 Temp     =         7.9554 
PotEng   =         1.3887 E_bond   =         0.0001 E_angle  =         0.2326 
E_dihed  =         0.0000 E_impro  =         0.0000 E_vdwl   =        -0.0630 
E_coul   =       112.8686 E_long   =      -111.6496 Press    =        67.8307 
---------------- Step      280 ----- CPU =      0.0380 (sec) ----------------
TotEng   =         1.4583 KinEng   =         0.1379 Temp     =         9.2554 
PotEng   =         1.3204 E_bond   =         0.0012 E_angle  =         0.1998 
E_dihed  =         0.0000 E_impro  =         0.0000 E_vdwl   =        -0.0606 
E_coul   =       113.1166 E_long   =      -111.9367 Press    =        63.3583 
---------------- Step      290 ----- CPU =      0.0392 (sec) ----------------
TotEng   =         1.4172 KinEng   =         0.2353 Temp     =        15.7858 
PotEng   =         1.1819 E_bond   =         0.0013 E_angle  =         0.0553 
E_dihed  =         0.0000 E_impro  =         0.0000 E_vdwl   =        -0.0586 
E_coul   =       112.9268 E_long   =      -111.7429 Press    =       109.5565 
---------------- Step      300 ----- CPU =      0.0404 (sec) ----------------
TotEng   =         1.3849 KinEng   =         0.2728 Temp     =        18.3038 
PotEng   =         1.1121 E_bond   =         0.0026 E_angle  =         0.0001 
E_dihed  =         0.0000 E_impro  =         0.0000 E_vdwl   =        -0.0567 
E_coul   =       112.9903 E_long   =      -111.8242 Press    =       124.1232 
---------------- Step      310 ----- CPU =      0.0419 (sec) ----------------
TotEng   =         1.3575 KinEng   =         0.2011 Temp     =        13.4912 
PotEng   =         1.1564 E_bond   =         0.0056 E_angle  =         0.0559 
E_dihed  =         0.0000 E_impro  =         0.0000 E_vdwl   =        -0.0549 
E_coul   =       113.0500 E_long   =      -111.9002 Press    =       150.5136 
---------------- Step      320 ----- CPU =      0.0431 (sec) ----------------
TotEng   =         1.3305 KinEng   =         0.0990 Temp     =         6.6448 
PotEng   =         1.2314 E_bond   =         0.0078 E_angle  =         0.1245 
E_dihed  =         0.0000 E_impro  =         0.0000 E_vdwl   =        -0.0533 
E_coul   =       112.8857 E_long   =      -111.7332 Press    =       205.2280 
---------------- Step      330 ----- CPU =      0.0444 (sec) ----------------
TotEng   =         1.3033 KinEng   =         0.0680 Temp     =         4.5646 
PotEng   =         1.2353 E_bond   =         0.0112 E_angle  =         0.1469 
E_dihed  =         0.0000 E_impro  =         0.0000 E_vdwl   =        -0.0517 
E_coul   =       113.0865 E_long   =      -111.9576 Press    =       192.6713 
---------------- Step      340 ----- CPU =      0.0454 (sec) ----------------
TotEng   =         1.2786 KinEng   =         0.1165 Temp     =         7.8154 
PotEng   =         1.1621 E_bond   =         0.0091 E_angle  =         0.0677 
E_dihed  =         0.0000 E_impro  =         0.0000 E_vdwl   =        -0.0503 
E_coul   =       112.9077 E_long   =      -111.7722 Press    =       213.9318 
---------------- Step      350 ----- CPU =      0.0463 (sec) ----------------
TotEng   =         1.2587 KinEng   =         0.1664 Temp     =        11.1673 
PotEng   =         1.0922 E_bond   =         0.0084 E_angle  =         0.0092 
E_dihed  =         0.0000 E_impro  =         0.0000 E_vdwl   =        -0.0490 
E_coul   =       113.0054 E_long   =      -111.8818 Press    =       188.4536 
---------------- Step      360 ----- CPU =      0.0472 (sec) ----------------
TotEng   =         1.2426 KinEng   =         0.1513 Temp     =        10.1501 
PotEng   =         1.0913 E_bond   =         0.0075 E_angle  =         0.0128 
E_dihed  =         0.0000 E_impro  =         0.0000 E_vdwl   =        -0.0477 
E_coul   =       113.0092 E_long   =      -111.8904 Press    =       177.4700 
---------------- Step      370 ----- CPU =      0.0483 (sec) ----------------
TotEng   =         1.2278 KinEng   =         0.0875 Temp     =         5.8725 
PotEng   =         1.1403 E_bond   =         0.0063 E_angle  =         0.0596 
E_dihed  =         0.0000 E_impro  =         0.0000 E_vdwl   =        -0.0466 
E_coul   =       112.9086 E_long   =      -111.7876 Press    =       182.2411 
---------------- Step      380 ----- CPU =      0.0493 (sec) ----------------
TotEng   =         1.2125 KinEng   =         0.0437 Temp     =         2.9323 
PotEng   =         1.1688 E_bond   =         0.0061 E_angle  =         0.0997 
E_dihed  =         0.0000 E_impro  =         0.0000 E_vdwl   =        -0.0455 
E_coul   =       113.0642 E_long   =      -111.9557 Press    =       145.8317 
---------------- Step      390 ----- CPU =      0.0503 (sec) ----------------
TotEng   =         1.1977 KinEng   =         0.0567 Temp     =         3.8074 
PotEng   =         1.1409 E_bond   =         0.0033 E_angle  =         0.0664 
E_dihed  =         0.0000 E_impro  =         0.0000 E_vdwl   =        -0.0446 
E_coul   =       112.9031 E_long   =      -111.7873 Press    =       142.5375 
---------------- Step      400 ----- CPU =      0.0513 (sec) ----------------
TotEng   =         1.1850 KinEng   =         0.0965 Temp     =         6.4729 
PotEng   =         1.0885 E_bond   =         0.0021 E_angle  =         0.0221 
E_dihed  =         0.0000 E_impro  =         0.0000 E_vdwl   =        -0.0436 
E_coul   =       113.0168 E_long   =      -111.9088 Press    =        98.0351 
---------------- Step      410 ----- CPU =      0.0525 (sec) ----------------
TotEng   =         1.1752 KinEng   =         0.1078 Temp     =         7.2323 
PotEng   =         1.0674 E_bond   =         0.0009 E_angle  =         0.0005 
E_dihed  =         0.0000 E_impro  =         0.0000 E_vdwl   =        -0.0428 
E_coul   =       112.9812 E_long   =      -111.8725 Press    =        78.1298 
---------------- Step      420 ----- CPU =      0.0534 (sec) ----------------
TotEng   =         1.1669 KinEng   =         0.0753 Temp     =         5.0531 
PotEng   =         1.0916 E_bond   =         0.0004 E_angle  =         0.0232 
E_dihed  =         0.0000 E_impro  =         0.0000 E_vdwl   =        -0.0420 
E_coul   =       112.9311 E_long   =      -111.8212 Press    =        69.6934 
---------------- Step      430 ----- CPU =      0.0544 (sec) ----------------
TotEng   =         1.1585 KinEng   =         0.0344 Temp     =         2.3054 
PotEng   =         1.1241 E_bond   =         0.0004 E_angle  =         0.0619 
E_dihed  =         0.0000 E_impro  =         0.0000 E_vdwl   =        -0.0413 
E_coul   =       113.0442 E_long   =      -111.9411 Press    =        45.0658 
---------------- Step      440 ----- CPU =      0.0556 (sec) ----------------
TotEng   =         1.1499 KinEng   =         0.0252 Temp     =         1.6879 
PotEng   =         1.1247 E_bond   =         0.0001 E_angle  =         0.0564 
E_dihed  =         0.0000 E_impro  =         0.0000 E_vdwl   =        -0.0406 
E_coul   =       112.9063 E_long   =      -111.7975 Press    =        54.6990 
---------------- Step      450 ----- CPU =      0.0567 (sec) ----------------
TotEng   =         1.1421 KinEng   =         0.0482 Temp     =         3.2367 
PotEng   =         1.0938 E_bond   =         0.0001 E_angle  =         0.0311 
E_dihed  =         0.0000 E_impro  =         0.0000 E_vdwl   =        -0.0399 
E_coul   =       113.0236 E_long   =      -111.9210 Press    =        31.4942 
---------------- Step      460 ----- CPU =      0.0577 (sec) ----------------
TotEng   =         1.1358 KinEng   =         0.0687 Temp     =         4.6089 
PotEng   =         1.0671 E_bond   =         0.0000 E_angle  =         0.0017 
E_dihed  =         0.0000 E_impro  =         0.0000 E_vdwl   =        -0.0394 
E_coul   =       112.9620 E_long   =      -111.8573 Press    =        37.4137 
---------------- Step      470 ----- CPU =      0.0589 (sec) ----------------
TotEng   =         1.1309 KinEng   =         0.0596 Temp     =         4.0008 
PotEng   =         1.0713 E_bond   =         0.0001 E_angle  =         0.0058 
E_dihed  =         0.0000 E_impro  =         0.0000 E_vdwl   =        -0.0388 
E_coul   =       112.9521 E_long   =      -111.8478 Press    =        45.5017 
---------------- Step      480 ----- CPU =      0.0598 (sec) ----------------
TotEng   =         1.1264 KinEng   =         0.0307 Temp     =         2.0568 
PotEng   =         1.0957 E_bond   =         0.0005 E_angle  =         0.0339 
E_dihed  =         0.0000 E_impro  =         0.0000 E_vdwl   =        -0.0383 
E_coul   =       113.0259 E_long   =      -111.9262 Press    =        49.7250 
---------------- Step      490 ----- CPU =      0.0612 (sec) ----------------
TotEng   =         1.1216 KinEng   =         0.0127 Temp     =         0.8522 
PotEng   =         1.1089 E_bond   =         0.0007 E_angle  =         0.0424 
E_dihed  =         0.0000 E_impro  =         0.0000 E_vdwl   =        -0.0378 
E_coul   =       112.9153 E_long   =      -111.8116 Press    =        79.8624 
---------------- Step      500 ----- CPU =      0.0629 (sec) ----------------
TotEng   =         1.1168 KinEng   =         0.0213 Temp     =         1.4272 
PotEng   =         1.0955 E_bond   =         0.0014 E_angle  =         0.0338 
E_dihed  =         0.0000 E_impro  =         0.0000 E_vdwl   =        -0.0374 
E_coul   =       113.0259 E_long   =      -111.9282 Press    =        78.9594 
---------------- Step      510 ----- CPU =      0.0642 (sec) ----------------
TotEng   =         1.1128 KinEng   =         0.0406 Temp     =         2.7223 
PotEng   =         1.0723 E_bond   =         0.0017 E_angle  =         0.0070 
E_dihed  =         0.0000 E_impro  =         0.0000 E_vdwl   =        -0.0370 
E_coul   =       112.9502 E_long   =      -111.8497 Press    =       101.7680 
---------------- Step      520 ----- CPU =      0.0655 (sec) ----------------
TotEng   =         1.1099 KinEng   =         0.0449 Temp     =         3.0136 
PotEng   =         1.0649 E_bond   =         0.0024 E_angle  =         0.0002 
E_dihed  =         0.0000 E_impro  =         0.0000 E_vdwl   =        -0.0367 
E_coul   =       112.9698 E_long   =      -111.8708 Press    =       113.0122 
---------------- Step      530 ----- CPU =      0.0666 (sec) ----------------
TotEng   =         1.1074 KinEng   =         0.0289 Temp     =         1.9363 
PotEng   =         1.0785 E_bond   =         0.0036 E_angle  =         0.0156 
E_dihed  =         0.0000 E_impro  =         0.0000 E_vdwl   =        -0.0371 
E_coul   =       113.0095 E_long   =      -111.9131 Press    =       122.8210 
---------------- Step      540 ----- CPU =      0.0677 (sec) ----------------
TotEng   =         1.1048 KinEng   =         0.0100 Temp     =         0.6738 
PotEng   =         1.0947 E_bond   =         0.0041 E_angle  =         0.0283 
E_dihed  =         0.0000 E_impro  =         0.0000 E_vdwl   =        -0.0374 
E_coul   =       112.9266 E_long   =      -111.8268 Press    =       146.4662 
---------------- Step      550 ----- CPU =      0.0718 (sec) ----------------
TotEng   =         1.1019 KinEng   =         0.0081 Temp     =         0.5436 
PotEng   =         1.0938 E_bond   =         0.0051 E_angle  =         0.0314 
E_dihed  =         0.0000 E_impro  =         0.0000 E_vdwl   =        -0.0377 
E_coul   =       113.0243 E_long   =      -111.9294 Press    =       140.4903 
---------------- Step      560 ----- CPU =      0.0744 (sec) ----------------
TotEng   =         1.0991 KinEng   =         0.0217 Temp     =         1.4528 
PotEng   =         1.0775 E_bond   =         0.0047 E_angle  =         0.0119 
E_dihed  =         0.0000 E_impro  =         0.0000 E_vdwl   =        -0.0380 
E_coul   =       112.9435 E_long   =      -111.8445 Press    =       152.3827 
---------------- Step      570 ----- CPU =      0.0754 (sec) ----------------
TotEng   =         1.0970 KinEng   =         0.0322 Temp     =         2.1637 
PotEng   =         1.0647 E_bond   =         0.0047 E_angle  =         0.0009 
E_dihed  =         0.0000 E_impro  =         0.0000 E_vdwl   =        -0.0383 
E_coul   =       112.9831 E_long   =      -111.8857 Press    =       144.7596 
---------------- Step      580 ----- CPU =      0.0764 (sec) ----------------
TotEng   =         1.0953 KinEng   =         0.0268 Temp     =         1.7980 
PotEng   =         1.0685 E_bond   =         0.0045 E_angle  =         0.0054 
E_dihed  =         0.0000 E_impro  =         0.0000 E_vdwl   =        -0.0386 
E_coul   =       112.9951 E_long   =      -111.8978 Press    =       139.4209 
---------------- Step      590 ----- CPU =      0.0775 (sec) ----------------
TotEng   =         1.0937 KinEng   =         0.0118 Temp     =         0.7915 
PotEng   =         1.0819 E_bond   =         0.0039 E_angle  =         0.0165 
E_dihed  =         0.0000 E_impro  =         0.0000 E_vdwl   =        -0.0389 
E_coul   =       112.9379 E_long   =      -111.8374 Press    =       141.6675 
---------------- Step      600 ----- CPU =      0.0785 (sec) ----------------
TotEng   =         1.0919 KinEng   =         0.0040 Temp     =         0.2676 
PotEng   =         1.0879 E_bond   =         0.0037 E_angle  =         0.0261 
E_dihed  =         0.0000 E_impro  =         0.0000 E_vdwl   =        -0.0392 
E_coul   =       113.0198 E_long   =      -111.9226 Press    =       122.1427 
---------------- Step      610 ----- CPU =      0.0795 (sec) ----------------
TotEng   =         1.0900 KinEng   =         0.0104 Temp     =         0.6945 
PotEng   =         1.0796 E_bond   =         0.0026 E_angle  =         0.0145 
E_dihed  =         0.0000 E_impro  =         0.0000 E_vdwl   =        -0.0394 
E_coul   =       112.9401 E_long   =      -111.8382 Press    =       120.7146 
---------------- Step      620 ----- CPU =      0.0810 (sec) ----------------
TotEng   =         1.0884 KinEng   =         0.0213 Temp     =         1.4271 
PotEng   =         1.0671 E_bond   =         0.0021 E_angle  =         0.0042 
E_dihed  =         0.0000 E_impro  =         0.0000 E_vdwl   =        -0.0397 
E_coul   =       112.9927 E_long   =      -111.8923 Press    =       100.5719 
---------------- Step      630 ----- CPU =      0.0820 (sec) ----------------
TotEng   =         1.0872 KinEng   =         0.0229 Temp     =         1.5373 
PotEng   =         1.0643 E_bond   =         0.0015 E_angle  =         0.0009 
E_dihed  =         0.0000 E_impro  =         0.0000 E_vdwl   =        -0.0399 
E_coul   =       112.9827 E_long   =      -111.8809 Press    =        90.2262 
---------------- Step      640 ----- CPU =      0.0831 (sec) ----------------
TotEng   =         1.0862 KinEng   =         0.0133 Temp     =         0.8916 
PotEng   =         1.0729 E_bond   =         0.0011 E_angle  =         0.0079 
E_dihed  =         0.0000 E_impro  =         0.0000 E_vdwl   =        -0.0401 
E_coul   =       112.9492 E_long   =      -111.8451 Press    =        85.9630 
---------------- Step      650 ----- CPU =      0.0841 (sec) ----------------
TotEng   =         1.0851 KinEng   =         0.0033 Temp     =         0.2232 
PotEng   =         1.0818 E_bond   =         0.0010 E_angle  =         0.0194 
E_dihed  =         0.0000 E_impro  =         0.0000 E_vdwl   =        -0.0403 
E_coul   =       113.0138 E_long   =      -111.9121 Press    =        70.7113 
---------------- Step      660 ----- CPU =      0.0852 (sec) ----------------
TotEng   =         1.0839 KinEng   =         0.0033 Temp     =         0.2229 
PotEng   =         1.0806 E_bond   =         0.0007 E_angle  =         0.0146 
E_dihed  =         0.0000 E_impro  =         0.0000 E_vdwl   =        -0.0405 
E_coul   =       112.9401 E_long   =      -111.8344 Press    =        74.9759 
---------------- Step      670 ----- CPU =      0.0861 (sec) ----------------
TotEng   =         1.0827 KinEng   =         0.0115 Temp     =         0.7700 
PotEng   =         1.0713 E_bond   =         0.0007 E_angle  =         0.0078 
E_dihed  =         0.0000 E_impro  =         0.0000 E_vdwl   =        -0.0407 
E_coul   =       112.9996 E_long   =      -111.8962 Press    =        63.3142 
---------------- Step      680 ----- CPU =      0.0875 (sec) ----------------
TotEng   =         1.0819 KinEng   =         0.0170 Temp     =         1.1397 
PotEng   =         1.0649 E_bond   =         0.0006 E_angle  =         0.0000 
E_dihed  =         0.0000 E_impro  =         0.0000 E_vdwl   =        -0.0408 
E_coul   =       112.9730 E_long   =      -111.8679 Press    =        66.2549 
---------------- Step      690 ----- CPU =      0.0886 (sec) ----------------
TotEng   =         1.0812 KinEng   =         0.0131 Temp     =         0.8817 
PotEng   =         1.0681 E_bond   =         0.0007 E_angle  =         0.0026 
E_dihed  =         0.0000 E_impro  =         0.0000 E_vdwl   =        -0.0410 
E_coul   =       112.9604 E_long   =      -111.8547 Press    =        71.3699 
---------------- Step      700 ----- CPU =      0.0897 (sec) ----------------
TotEng   =         1.0806 KinEng   =         0.0045 Temp     =         0.3016 
PotEng   =         1.0761 E_bond   =         0.0010 E_angle  =         0.0127 
E_dihed  =         0.0000 E_impro  =         0.0000 E_vdwl   =        -0.0411 
E_coul   =       113.0070 E_long   =      -111.9035 Press    =        71.7853 
---------------- Step      710 ----- CPU =      0.0907 (sec) ----------------
TotEng   =         1.0798 KinEng   =         0.0007 Temp     =         0.0482 
PotEng   =         1.0791 E_bond   =         0.0011 E_angle  =         0.0128 
E_dihed  =         0.0000 E_impro  =         0.0000 E_vdwl   =        -0.0412 
E_coul   =       112.9431 E_long   =      -111.8368 Press    =        87.9994 
---------------- Step      720 ----- CPU =      0.0918 (sec) ----------------
TotEng   =         1.0790 KinEng   =         0.0052 Temp     =         0.3505 
PotEng   =         1.0737 E_bond   =         0.0016 E_angle  =         0.0101 
E_dihed  =         0.0000 E_impro  =         0.0000 E_vdwl   =        -0.0413 
E_coul   =       113.0039 E_long   =      -111.9007 Press    =        87.7579 
---------------- Step      730 ----- CPU =      0.0929 (sec) ----------------
TotEng   =         1.0783 KinEng   =         0.0117 Temp     =         0.7879 
PotEng   =         1.0665 E_bond   =         0.0019 E_angle  =         0.0012 
E_dihed  =         0.0000 E_impro  =         0.0000 E_vdwl   =        -0.0414 
E_coul   =       112.9658 E_long   =      -111.8610 Press    =       100.8291 
---------------- Step      740 ----- CPU =      0.0942 (sec) ----------------
TotEng   =         1.0778 KinEng   =         0.0123 Temp     =         0.8235 
PotEng   =         1.0655 E_bond   =         0.0023 E_angle  =         0.0003 
E_dihed  =         0.0000 E_impro  =         0.0000 E_vdwl   =        -0.0414 
E_coul   =       112.9707 E_long   =      -111.8663 Press    =       108.6904 
---------------- Step      750 ----- CPU =      0.0953 (sec) ----------------
TotEng   =         1.0774 KinEng   =         0.0063 Temp     =         0.4207 
PotEng   =         1.0711 E_bond   =         0.0029 E_angle  =         0.0071 
E_dihed  =         0.0000 E_impro  =         0.0000 E_vdwl   =        -0.0415 
E_coul   =       112.9995 E_long   =      -111.8969 Press    =       113.4264 
---------------- Step      760 ----- CPU =      0.0963 (sec) ----------------
TotEng   =         1.0769 KinEng   =         0.0007 Temp     =         0.0457 
PotEng   =         1.0762 E_bond   =         0.0031 E_angle  =         0.0098 
E_dihed  =         0.0000 E_impro  =         0.0000 E_vdwl   =        -0.0415 
E_coul   =       112.9477 E_long   =      -111.8429 Press    =       127.2994 
---------------- Step      770 ----- CPU =      0.0973 (sec) ----------------
TotEng   =         1.0763 KinEng   =         0.0015 Temp     =         0.0987 
PotEng   =         1.0749 E_bond   =         0.0037 E_angle  =         0.0109 
E_dihed  =         0.0000 E_impro  =         0.0000 E_vdwl   =        -0.0415 
E_coul   =       113.0052 E_long   =      -111.9033 Press    =       123.8693 
---------------- Step      780 ----- CPU =      0.0984 (sec) ----------------
TotEng   =         1.0758 KinEng   =         0.0069 Temp     =         0.4621 
PotEng   =         1.0689 E_bond   =         0.0035 E_angle  =         0.0029 
E_dihed  =         0.0000 E_impro  =         0.0000 E_vdwl   =        -0.0416 
E_coul   =       112.9605 E_long   =      -111.8564 Press    =       131.2154 
---------------- Step      790 ----- CPU =      0.0995 (sec) ----------------
TotEng   =         1.0754 KinEng   =         0.0101 Temp     =         0.6779 
PotEng   =         1.0653 E_bond   =         0.0036 E_angle  =         0.0001 
E_dihed  =         0.0000 E_impro  =         0.0000 E_vdwl   =        -0.0415 
E_coul   =       112.9788 E_long   =      -111.8756 Press    =       128.1719 
---------------- Step      800 ----- CPU =      0.1005 (sec) ----------------
TotEng   =         1.0751 KinEng   =         0.0074 Temp     =         0.4951 
PotEng   =         1.0677 E_bond   =         0.0035 E_angle  =         0.0031 
E_dihed  =         0.0000 E_impro  =         0.0000 E_vdwl   =        -0.0415 
E_coul   =       112.9914 E_long   =      -111.8889 Press    =       124.5143 
---------------- Step      810 ----- CPU =      0.1013 (sec) ----------------
TotEng   =         1.0747 KinEng   =         0.0021 Temp     =         0.1403 
PotEng   =         1.0727 E_bond   =         0.0031 E_angle  =         0.0065 
E_dihed  =         0.0000 E_impro  =         0.0000 E_vdwl   =        -0.0415 
E_coul   =       112.9526 E_long   =      -111.8481 Press    =       126.1879 
---------------- Step      820 ----- CPU =      0.1023 (sec) ----------------
TotEng   =         1.0743 KinEng   =         0.0003 Temp     =         0.0221 
PotEng   =         1.0740 E_bond   =         0.0030 E_angle  =         0.0102 
E_dihed  =         0.0000 E_impro  =         0.0000 E_vdwl   =        -0.0415 
E_coul   =       113.0038 E_long   =      -111.9016 Press    =       113.9037 
---------------- Step      830 ----- CPU =      0.1037 (sec) ----------------
TotEng   =         1.0739 KinEng   =         0.0037 Temp     =         0.2489 
PotEng   =         1.0701 E_bond   =         0.0024 E_angle  =         0.0044 
E_dihed  =         0.0000 E_impro  =         0.0000 E_vdwl   =        -0.0414 
E_coul   =       112.9564 E_long   =      -111.8516 Press    =       113.0158 
---------------- Step      840 ----- CPU =      0.1056 (sec) ----------------
TotEng   =         1.0735 KinEng   =         0.0079 Temp     =         0.5281 
PotEng   =         1.0656 E_bond   =         0.0021 E_angle  =         0.0012 
E_dihed  =         0.0000 E_impro  =         0.0000 E_vdwl   =        -0.0414 
E_coul   =       112.9847 E_long   =      -111.8810 Press    =       101.5459 
---------------- Step      850 ----- CPU =      0.1068 (sec) ----------------
TotEng   =         1.0732 KinEng   =         0.0079 Temp     =         0.5286 
PotEng   =         1.0653 E_bond   =         0.0018 E_angle  =         0.0009 
E_dihed  =         0.0000 E_impro  =         0.0000 E_vdwl   =        -0.0413 
E_coul   =       112.9833 E_long   =      -111.8794 Press    =        94.6525 
---------------- Step      860 ----- CPU =      0.1179 (sec) ----------------
TotEng   =         1.0730 KinEng   =         0.0039 Temp     =         0.2622 
PotEng   =         1.0691 E_bond   =         0.0014 E_angle  =         0.0035 
E_dihed  =         0.0000 E_impro  =         0.0000 E_vdwl   =        -0.0412 
E_coul   =       112.9578 E_long   =      -111.8525 Press    =        92.2724 
---------------- Step      870 ----- CPU =      0.1190 (sec) ----------------
TotEng   =         1.0727 KinEng   =         0.0007 Temp     =         0.0456 
PotEng   =         1.0720 E_bond   =         0.0014 E_angle  =         0.0085 
E_dihed  =         0.0000 E_impro  =         0.0000 E_vdwl   =        -0.0412 
E_coul   =       113.0006 E_long   =      -111.8973 Press    =        81.8704 
---------------- Step      880 ----- CPU =      0.1199 (sec) ----------------
TotEng   =         1.0723 KinEng   =         0.0018 Temp     =         0.1181 
PotEng   =         1.0705 E_bond   =         0.0011 E_angle  =         0.0051 
E_dihed  =         0.0000 E_impro  =         0.0000 E_vdwl   =        -0.0411 
E_coul   =       112.9541 E_long   =      -111.8487 Press    =        84.2654 
---------------- Step      890 ----- CPU =      0.1212 (sec) ----------------
TotEng   =         1.0719 KinEng   =         0.0056 Temp     =         0.3789 
PotEng   =         1.0663 E_bond   =         0.0011 E_angle  =         0.0027 
E_dihed  =         0.0000 E_impro  =         0.0000 E_vdwl   =        -0.0410 
E_coul   =       112.9887 E_long   =      -111.8853 Press    =        77.2700 
---------------- Step      900 ----- CPU =      0.1222 (sec) ----------------
TotEng   =         1.0716 KinEng   =         0.0079 Temp     =         0.5329 
PotEng   =         1.0637 E_bond   =         0.0010 E_angle  =         0.0000 
E_dihed  =         0.0000 E_impro  =         0.0000 E_vdwl   =        -0.0409 
E_coul   =       112.9756 E_long   =      -111.8721 Press    =        78.6410 
---------------- Step      910 ----- CPU =      0.1235 (sec) ----------------
TotEng   =         1.0713 KinEng   =         0.0068 Temp     =         0.4581 
PotEng   =         1.0645 E_bond   =         0.0011 E_angle  =         0.0014 
E_dihed  =         0.0000 E_impro  =         0.0000 E_vdwl   =        -0.0408 
E_coul   =       112.9622 E_long   =      -111.8594 Press    =        82.2617 
---------------- Step      920 ----- CPU =      0.1252 (sec) ----------------
TotEng   =         1.0709 KinEng   =         0.0054 Temp     =         0.3646 
PotEng   =         1.0655 E_bond   =         0.0013 E_angle  =         0.0062 
E_dihed  =         0.0000 E_impro  =         0.0000 E_vdwl   =        -0.0407 
E_coul   =       112.9937 E_long   =      -111.8951 Press    =        81.4944 
---------------- Step      930 ----- CPU =      0.1263 (sec) ----------------
TotEng   =         1.0702 KinEng   =         0.0090 Temp     =         0.6025 
PotEng   =         1.0612 E_bond   =         0.0014 E_angle  =         0.0050 
E_dihed  =         0.0000 E_impro  =         0.0000 E_vdwl   =        -0.0406 
E_coul   =       112.9479 E_long   =      -111.8524 Press    =        91.3916 
---------------- Step      940 ----- CPU =      0.1276 (sec) ----------------
TotEng   =         1.0691 KinEng   =         0.0209 Temp     =         1.4002 
PotEng   =         1.0482 E_bond   =         0.0017 E_angle  =         0.0040 
E_dihed  =         0.0000 E_impro  =         0.0000 E_vdwl   =        -0.0405 
E_coul   =       112.9784 E_long   =      -111.8954 Press    =        90.5028 
---------------- Step      950 ----- CPU =      0.1287 (sec) ----------------
TotEng   =         1.0670 KinEng   =         0.0437 Temp     =         2.9326 
PotEng   =         1.0233 E_bond   =         0.0017 E_angle  =         0.0002 
E_dihed  =         0.0000 E_impro  =         0.0000 E_vdwl   =        -0.0403 
E_coul   =       112.9411 E_long   =      -111.8794 Press    =        96.7148 
---------------- Step      960 ----- CPU =      0.1299 (sec) ----------------
TotEng   =         1.0628 KinEng   =         0.0862 Temp     =         5.7868 
PotEng   =         0.9766 E_bond   =         0.0018 E_angle  =         0.0003 
E_dihed  =         0.0000 E_impro  =         0.0000 E_vdwl   =        -0.0402 
E_coul   =       112.9064 E_long   =      -111.8917 Press    =        98.0766 
---------------- Step      970 ----- CPU =      0.1309 (sec) ----------------
TotEng   =         1.0538 KinEng   =         0.1723 Temp     =        11.5633 
PotEng   =         0.8815 E_bond   =         0.0017 E_angle  =         0.0038 
E_dihed  =         0.0000 E_impro  =         0.0000 E_vdwl   =        -0.0401 
E_coul   =       112.8586 E_long   =      -111.9425 Press    =        91.1860 
---------------- Step      980 ----- CPU =      0.1319 (sec) ----------------
TotEng   =         1.0334 KinEng   =         0.3475 Temp     =        23.3133 
PotEng   =         0.6859 E_bond   =         0.0013 E_angle  =         0.0046 
E_dihed  =         0.0000 E_impro  =         0.0000 E_vdwl   =        -0.0400 
E_coul   =       112.6823 E_long   =      -111.9623 Press    =        81.5936 
---------------- Step      990 ----- CPU =      0.1329 (sec) ----------------
TotEng   =         0.9852 KinEng   =         0.6685 Temp     =        44.8551 
PotEng   =         0.3167 E_bond   =         0.0012 E_angle  =         0.0036 
E_dihed  =         0.0000 E_impro  =         0.0000 E_vdwl   =        -0.0399 
E_coul   =       112.4584 E_long   =      -112.1066 Press    =        44.2190 
---------------- Step     1000 ----- CPU =      0.1339 (sec) ----------------
TotEng   =         0.8716 KinEng   =         1.1562 Temp     =        77.5740 
PotEng   =        -0.2845 E_bond   =         0.0025 E_angle  =         0.0023 
E_dihed  =         0.0000 E_impro  =         0.0000 E_vdwl   =        -0.0397 
E_coul   =       112.0197 E_long   =      -112.2692 Press    =        -6.2583 
---------------- Step     1010 ----- CPU =      0.1348 (sec) ----------------
TotEng   =         0.6245 KinEng   =         1.6803 Temp     =       112.7428 
PotEng   =        -1.0558 E_bond   =         0.0085 E_angle  =         0.0027 
E_dihed  =         0.0000 E_impro  =         0.0000 E_vdwl   =        -0.0396 
E_coul   =       111.5193 E_long   =      -112.5466 Press    =       -74.1642 
---------------- Step     1020 ----- CPU =      0.1358 (sec) ----------------
TotEng   =         0.1901 KinEng   =         1.9633 Temp     =       131.7325 
PotEng   =        -1.7733 E_bond   =         0.0128 E_angle  =         0.0036 
E_dihed  =         0.0000 E_impro  =         0.0000 E_vdwl   =        -0.0396 
E_coul   =       111.1059 E_long   =      -112.8560 Press    =      -129.7931 
---------------- Step     1030 ----- CPU =      0.1367 (sec) ----------------
TotEng   =        -0.3775 KinEng   =         1.8644 Temp     =       125.0967 
PotEng   =        -2.2419 E_bond   =         0.0147 E_angle  =         0.0459 
E_dihed  =         0.0000 E_impro  =         0.0000 E_vdwl   =        -0.0395 
E_coul   =       110.8437 E_long   =      -113.1068 Press    =      -155.5916 
---------------- Step     1040 ----- CPU =      0.1377 (sec) ----------------
TotEng   =        -0.9337 KinEng   =         1.5292 Temp     =       102.6035 
PotEng   =        -2.4629 E_bond   =         0.0116 E_angle  =         0.0246 
E_dihed  =         0.0000 E_impro  =         0.0000 E_vdwl   =        -0.0395 
E_coul   =       110.8219 E_long   =      -113.2814 Press    =      -164.8802 
---------------- Step     1050 ----- CPU =      0.1388 (sec) ----------------
TotEng   =        -1.3798 KinEng   =         1.1657 Temp     =        78.2117 
PotEng   =        -2.5455 E_bond   =         0.0090 E_angle  =         0.0681 
E_dihed  =         0.0000 E_impro  =         0.0000 E_vdwl   =        -0.0395 
E_coul   =       110.7844 E_long   =      -113.3675 Press    =      -166.7086 
---------------- Step     1060 ----- CPU =      0.1399 (sec) ----------------
TotEng   =        -1.7034 KinEng   =         0.8633 Temp     =        57.9247 
PotEng   =        -2.5667 E_bond   =         0.0075 E_angle  =         0.0574 
E_dihed  =         0.0000 E_impro  =         0.0000 E_vdwl   =        -0.0395 
E_coul   =       110.8017 E_long   =      -113.3937 Press    =      -169.6399 
---------------- Step     1070 ----- CPU =      0.1409 (sec) ----------------
TotEng   =        -1.9282 KinEng   =         0.6295 Temp     =        42.2341 
PotEng   =        -2.5577 E_bond   =         0.0070 E_angle  =         0.0461 
E_dihed  =         0.0000 E_impro  =         0.0000 E_vdwl   =        -0.0396 
E_coul   =       110.8094 E_long   =      -113.3806 Press    =      -173.5341 
---------------- Step     1080 ----- CPU =      0.1418 (sec) ----------------
TotEng   =        -2.0808 KinEng   =         0.4472 Temp     =        30.0082 
PotEng   =        -2.5281 E_bond   =         0.0073 E_angle  =         0.0686 
E_dihed  =         0.0000 E_impro  =         0.0000 E_vdwl   =        -0.0397 
E_coul   =       110.7800 E_long   =      -113.3443 Press    =      -177.1675 
---------------- Step     1090 ----- CPU =      0.1428 (sec) ----------------
TotEng   =        -2.1804 KinEng   =         0.3019 Temp     =        20.2589 
PotEng   =        -2.4824 E_bond   =         0.0074 E_angle  =         0.0314 
E_dihed  =         0.0000 E_impro  =         0.0000 E_vdwl   =        -0.0397 
E_coul   =       110.8144 E_long   =      -113.2959 Press    =      -180.2486 
---------------- Step     1100 ----- CPU =      0.1449 (sec) ----------------
TotEng   =        -2.2408 KinEng   =         0.1861 Temp     =        12.4898 
PotEng   =        -2.4270 E_bond   =         0.0080 E_angle  =         0.0491 
E_dihed  =         0.0000 E_impro  =         0.0000 E_vdwl   =        -0.0398 
E_coul   =       110.7992 E_long   =      -113.2435 Press    =      -180.7984 
---------------- Step     1110 ----- CPU =      0.1459 (sec) ----------------
TotEng   =        -2.2735 KinEng   =         0.0980 Temp     =         6.5732 
PotEng   =        -2.3715 E_bond   =         0.0079 E_angle  =         0.0326 
E_dihed  =         0.0000 E_impro  =         0.0000 E_vdwl   =        -0.0400 
E_coul   =       110.8265 E_long   =      -113.1986 Press    =      -180.5305 
---------------- Step     1120 ----- CPU =      0.1468 (sec) ----------------
TotEng   =        -2.2877 KinEng   =         0.0385 Temp     =         2.5811 
PotEng   =        -2.3262 E_bond   =         0.0080 E_angle  =         0.0271 
E_dihed  =         0.0000 E_impro  =         0.0000 E_vdwl   =        -0.0401 
E_coul   =       110.8440 E_long   =      -113.1653 Press    =      -179.0001 
---------------- Step     1130 ----- CPU =      0.1478 (sec) ----------------
TotEng   =        -2.2919 KinEng   =         0.0084 Temp     =         0.5604 
PotEng   =        -2.3003 E_bond   =         0.0080 E_angle  =         0.0388 
E_dihed  =         0.0000 E_impro  =         0.0000 E_vdwl   =        -0.0402 
E_coul   =       110.8381 E_long   =      -113.1450 Press    =      -176.5910 
---------------- Step     1140 ----- CPU =      0.1488 (sec) ----------------
TotEng   =        -2.2929 KinEng   =         0.0055 Temp     =         0.3684 
PotEng   =        -2.2984 E_bond   =         0.0077 E_angle  =         0.0209 
E_dihed  =         0.0000 E_impro  =         0.0000 E_vdwl   =        -0.0404 
E_coul   =       110.8597 E_long   =      -113.1464 Press    =      -175.6686 
---------------- Step     1150 ----- CPU =      0.1499 (sec) ----------------
TotEng   =        -2.2953 KinEng   =         0.0238 Temp     =         1.5993 
PotEng   =        -2.3192 E_bond   =         0.0077 E_angle  =         0.0386 
E_dihed  =         0.0000 E_impro  =         0.0000 E_vdwl   =        -0.0405 
E_coul   =       110.8326 E_long   =      -113.1576 Press    =      -173.8744 
---------------- Step     1160 ----- CPU =      0.1510 (sec) ----------------
TotEng   =        -2.3018 KinEng   =         0.0545 Temp     =         3.6551 
PotEng   =        -2.3563 E_bond   =         0.0075 E_angle  =         0.0302 
E_dihed  =         0.0000 E_impro  =         0.0000 E_vdwl   =        -0.0407 
E_coul   =       110.8321 E_long   =      -113.1853 Press    =      -173.3795 
---------------- Step     1170 ----- CPU =      0.1521 (sec) ----------------
TotEng   =        -2.3135 KinEng   =         0.0881 Temp     =         5.9091 
PotEng   =        -2.4015 E_bond   =         0.0071 E_angle  =         0.0342 
E_dihed  =         0.0000 E_impro  =         0.0000 E_vdwl   =        -0.0409 
E_coul   =       110.8173 E_long   =      -113.2192 Press    =      -172.4208 
---------------- Step     1180 ----- CPU =      0.1534 (sec) ----------------
TotEng   =        -2.3299 KinEng   =         0.1173 Temp     =         7.8724 
PotEng   =        -2.4472 E_bond   =         0.0068 E_angle  =         0.0477 
E_dihed  =         0.0000 E_impro  =         0.0000 E_vdwl   =        -0.0411 
E_coul   =       110.7954 E_long   =      -113.2560 Press    =      -171.0589 
---------------- Step     1190 ----- CPU =      0.1545 (sec) ----------------
TotEng   =        -2.3503 KinEng   =         0.1381 Temp     =         9.2671 
PotEng   =        -2.4884 E_bond   =         0.0062 E_angle  =         0.0357 
E_dihed  =         0.0000 E_impro  =         0.0000 E_vdwl   =        -0.0414 
E_coul   =       110.8045 E_long   =      -113.2934 Press    =      -170.0808 
---------------- Step     1200 ----- CPU =      0.1586 (sec) ----------------
TotEng   =        -2.3731 KinEng   =         0.1493 Temp     =        10.0167 
PotEng   =        -2.5224 E_bond   =         0.0058 E_angle  =         0.0573 
E_dihed  =         0.0000 E_impro  =         0.0000 E_vdwl   =        -0.0416 
E_coul   =       110.7820 E_long   =      -113.3258 Press    =      -168.5596 
---------------- Step     1210 ----- CPU =      0.1610 (sec) ----------------
TotEng   =        -2.3971 KinEng   =         0.1515 Temp     =        10.1630 
PotEng   =        -2.5486 E_bond   =         0.0053 E_angle  =         0.0477 
E_dihed  =         0.0000 E_impro  =         0.0000 E_vdwl   =        -0.0419 
E_coul   =       110.7933 E_long   =      -113.3530 Press    =      -167.8413 
---------------- Step     1220 ----- CPU =      0.1627 (sec) ----------------
TotEng   =        -2.4207 KinEng   =         0.1464 Temp     =         9.8253 
PotEng   =        -2.5671 E_bond   =         0.0049 E_angle  =         0.0538 
E_dihed  =         0.0000 E_impro  =         0.0000 E_vdwl   =        -0.0422 
E_coul   =       110.7899 E_long   =      -113.3736 Press    =      -167.2575 
---------------- Step     1230 ----- CPU =      0.1638 (sec) ----------------
TotEng   =        -2.4430 KinEng   =         0.1364 Temp     =         9.1504 
PotEng   =        -2.5794 E_bond   =         0.0047 E_angle  =         0.0629 
E_dihed  =         0.0000 E_impro  =         0.0000 E_vdwl   =        -0.0425 
E_coul   =       110.7836 E_long   =      -113.3880 Press    =      -167.2257 
---------------- Step     1240 ----- CPU =      0.1647 (sec) ----------------
TotEng   =        -2.4635 KinEng   =         0.1235 Temp     =         8.2839 
PotEng   =        -2.5870 E_bond   =         0.0044 E_angle  =         0.0497 
E_dihed  =         0.0000 E_impro  =         0.0000 E_vdwl   =        -0.0428 
E_coul   =       110.7977 E_long   =      -113.3960 Press    =      -167.9000 
---------------- Step     1250 ----- CPU =      0.1657 (sec) ----------------
TotEng   =        -2.4818 KinEng   =         0.1095 Temp     =         7.3462 
PotEng   =        -2.5913 E_bond   =         0.0045 E_angle  =         0.0665 
E_dihed  =         0.0000 E_impro  =         0.0000 E_vdwl   =        -0.0431 
E_coul   =       110.7808 E_long   =      -113.4000 Press    =      -169.0263 
---------------- Step     1260 ----- CPU =      0.1668 (sec) ----------------
TotEng   =        -2.4976 KinEng   =         0.0954 Temp     =         6.4019 
PotEng   =        -2.5930 E_bond   =         0.0045 E_angle  =         0.0533 
E_dihed  =         0.0000 E_impro  =         0.0000 E_vdwl   =        -0.0434 
E_coul   =       110.7917 E_long   =      -113.3991 Press    =      -170.6447 
---------------- Step     1270 ----- CPU =      0.1679 (sec) ----------------
TotEng   =        -2.5111 KinEng   =         0.0819 Temp     =         5.4944 
PotEng   =        -2.5930 E_bond   =         0.0047 E_angle  =         0.0574 
E_dihed  =         0.0000 E_impro  =         0.0000 E_vdwl   =        -0.0438 
E_coul   =       110.7847 E_long   =      -113.3960 Press    =      -172.4542 
---------------- Step     1280 ----- CPU =      0.1689 (sec) ----------------
TotEng   =        -2.5224 KinEng   =         0.0694 Temp     =         4.6576 
PotEng   =        -2.5918 E_bond   =         0.0049 E_angle  =         0.0604 
E_dihed  =         0.0000 E_impro  =         0.0000 E_vdwl   =        -0.0442 
E_coul   =       110.7782 E_long   =      -113.3912 Press    =      -174.3205 
---------------- Step     1290 ----- CPU =      0.1698 (sec) ----------------
TotEng   =        -2.5318 KinEng   =         0.0586 Temp     =         3.9311 
PotEng   =        -2.5904 E_bond   =         0.0051 E_angle  =         0.0487 
E_dihed  =         0.0000 E_impro  =         0.0000 E_vdwl   =        -0.0446 
E_coul   =       110.7858 E_long   =      -113.3854 Press    =      -176.1826 
---------------- Step     1300 ----- CPU =      0.1712 (sec) ----------------
TotEng   =        -2.5397 KinEng   =         0.0501 Temp     =         3.3588 
PotEng   =        -2.5898 E_bond   =         0.0053 E_angle  =         0.0608 
E_dihed  =         0.0000 E_impro  =         0.0000 E_vdwl   =        -0.0450 
E_coul   =       110.7693 E_long   =      -113.3802 Press    =      -177.7755 
---------------- Step     1310 ----- CPU =      0.1723 (sec) ----------------
TotEng   =        -2.5464 KinEng   =         0.0440 Temp     =         2.9550 
PotEng   =        -2.5904 E_bond   =         0.0054 E_angle  =         0.0486 
E_dihed  =         0.0000 E_impro  =         0.0000 E_vdwl   =        -0.0454 
E_coul   =       110.7767 E_long   =      -113.3757 Press    =      -179.2836 
---------------- Step     1320 ----- CPU =      0.1733 (sec) ----------------
TotEng   =        -2.5522 KinEng   =         0.0407 Temp     =         2.7275 
PotEng   =        -2.5929 E_bond   =         0.0056 E_angle  =         0.0531 
E_dihed  =         0.0000 E_impro  =         0.0000 E_vdwl   =        -0.0459 
E_coul   =       110.7673 E_long   =      -113.3730 Press    =      -180.3619 
---------------- Step     1330 ----- CPU =      0.1745 (sec) ----------------
TotEng   =        -2.5577 KinEng   =         0.0397 Temp     =         2.6646 
PotEng   =        -2.5974 E_bond   =         0.0057 E_angle  =         0.0541 
E_dihed  =         0.0000 E_impro  =         0.0000 E_vdwl   =        -0.0464 
E_coul   =       110.7612 E_long   =      -113.3720 Press    =      -181.1491 
---------------- Step     1340 ----- CPU =      0.1756 (sec) ----------------
TotEng   =        -2.5630 KinEng   =         0.0410 Temp     =         2.7525 
PotEng   =        -2.6041 E_bond   =         0.0057 E_angle  =         0.0463 
E_dihed  =         0.0000 E_impro  =         0.0000 E_vdwl   =        -0.0469 
E_coul   =       110.7640 E_long   =      -113.3731 Press    =      -181.7295 
---------------- Step     1350 ----- CPU =      0.1766 (sec) ----------------
TotEng   =        -2.5686 KinEng   =         0.0444 Temp     =         2.9780 
PotEng   =        -2.6130 E_bond   =         0.0058 E_angle  =         0.0566 
E_dihed  =         0.0000 E_impro  =         0.0000 E_vdwl   =        -0.0475 
E_coul   =       110.7480 E_long   =      -113.3760 Press    =      -181.8782 
---------------- Step     1360 ----- CPU =      0.1777 (sec) ----------------
TotEng   =        -2.5747 KinEng   =         0.0492 Temp     =         3.2980 
PotEng   =        -2.6239 E_bond   =         0.0057 E_angle  =         0.0469 
E_dihed  =         0.0000 E_impro  =         0.0000 E_vdwl   =        -0.0481 
E_coul   =       110.7521 E_long   =      -113.3805 Press    =      -182.0473 
---------------- Step     1370 ----- CPU =      0.1787 (sec) ----------------
TotEng   =        -2.5814 KinEng   =         0.0548 Temp     =         3.6778 
PotEng   =        -2.6362 E_bond   =         0.0057 E_angle  =         0.0528 
E_dihed  =         0.0000 E_impro  =         0.0000 E_vdwl   =        -0.0487 
E_coul   =       110.7401 E_long   =      -113.3860 Press    =      -181.9195 
---------------- Step     1380 ----- CPU =      0.1797 (sec) ----------------
TotEng   =        -2.5887 KinEng   =         0.0607 Temp     =         4.0696 
PotEng   =        -2.6493 E_bond   =         0.0056 E_angle  =         0.0531 
E_dihed  =         0.0000 E_impro  =         0.0000 E_vdwl   =        -0.0494 
E_coul   =       110.7334 E_long   =      -113.3921 Press    =      -181.7830 
---------------- Step     1390 ----- CPU =      0.1805 (sec) ----------------
TotEng   =        -2.5967 KinEng   =         0.0662 Temp     =         4.4430 
PotEng   =        -2.6629 E_bond   =         0.0055 E_angle  =         0.0482 
E_dihed  =         0.0000 E_impro  =         0.0000 E_vdwl   =        -0.0501 
E_coul   =       110.7318 E_long   =      -113.3983 Press    =      -181.6986 
---------------- Step     1400 ----- CPU =      0.1814 (sec) ----------------
TotEng   =        -2.6053 KinEng   =         0.0714 Temp     =         4.7899 
PotEng   =        -2.6767 E_bond   =         0.0055 E_angle  =         0.0574 
E_dihed  =         0.0000 E_impro  =         0.0000 E_vdwl   =        -0.0509 
E_coul   =       110.7154 E_long   =      -113.4042 Press    =      -181.5648 
---------------- Step     1410 ----- CPU =      0.1825 (sec) ----------------
TotEng   =        -2.6146 KinEng   =         0.0758 Temp     =         5.0859 
PotEng   =        -2.6904 E_bond   =         0.0054 E_angle  =         0.0492 
E_dihed  =         0.0000 E_impro  =         0.0000 E_vdwl   =        -0.0518 
E_coul   =       110.7162 E_long   =      -113.4094 Press    =      -181.7403 
---------------- Step     1420 ----- CPU =      0.1837 (sec) ----------------
TotEng   =        -2.6244 KinEng   =         0.0795 Temp     =         5.3321 
PotEng   =        -2.7038 E_bond   =         0.0054 E_angle  =         0.0556 
E_dihed  =         0.0000 E_impro  =         0.0000 E_vdwl   =        -0.0527 
E_coul   =       110.7015 E_long   =      -113.4137 Press    =      -181.9919 
---------------- Step     1430 ----- CPU =      0.1847 (sec) ----------------
TotEng   =        -2.6346 KinEng   =         0.0821 Temp     =         5.5082 
PotEng   =        -2.7167 E_bond   =         0.0054 E_angle  =         0.0551 
E_dihed  =         0.0000 E_impro  =         0.0000 E_vdwl   =        -0.0537 
E_coul   =       110.6934 E_long   =      -113.4170 Press    =      -182.4853 
---------------- Step     1440 ----- CPU =      0.1858 (sec) ----------------
TotEng   =        -2.6450 KinEng   =         0.0837 Temp     =         5.6126 
PotEng   =        -2.7287 E_bond   =         0.0053 E_angle  =         0.0520 
E_dihed  =         0.0000 E_impro  =         0.0000 E_vdwl   =        -0.0547 
E_coul   =       110.6877 E_long   =      -113.4190 Press    =      -183.1351 
---------------- Step     1450 ----- CPU =      0.1868 (sec) ----------------
TotEng   =        -2.6556 KinEng   =         0.0843 Temp     =         5.6546 
PotEng   =        -2.7399 E_bond   =         0.0054 E_angle  =         0.0599 
E_dihed  =         0.0000 E_impro  =         0.0000 E_vdwl   =        -0.0558 
E_coul   =       110.6706 E_long   =      -113.4199 Press    =      -183.8507 
---------------- Step     1460 ----- CPU =      0.1877 (sec) ----------------
TotEng   =        -2.6662 KinEng   =         0.0840 Temp     =         5.6350 
PotEng   =        -2.7502 E_bond   =         0.0054 E_angle  =         0.0526 
E_dihed  =         0.0000 E_impro  =         0.0000 E_vdwl   =        -0.0570 
E_coul   =       110.6685 E_long   =      -113.4196 Press    =      -184.7512 
---------------- Step     1470 ----- CPU =      0.1886 (sec) ----------------
TotEng   =        -2.6768 KinEng   =         0.0831 Temp     =         5.5774 
PotEng   =        -2.7599 E_bond   =         0.0054 E_angle  =         0.0591 
E_dihed  =         0.0000 E_impro  =         0.0000 E_vdwl   =        -0.0583 
E_coul   =       110.6520 E_long   =      -113.4182 Press    =      -185.6510 
---------------- Step     1480 ----- CPU =      0.1896 (sec) ----------------
TotEng   =        -2.6872 KinEng   =         0.0819 Temp     =         5.4935 
PotEng   =        -2.7691 E_bond   =         0.0055 E_angle  =         0.0578 
E_dihed  =         0.0000 E_impro  =         0.0000 E_vdwl   =        -0.0597 
E_coul   =       110.6431 E_long   =      -113.4158 Press    =      -186.6144 
---------------- Step     1490 ----- CPU =      0.1908 (sec) ----------------
TotEng   =        -2.6975 KinEng   =         0.0807 Temp     =         5.4116 
PotEng   =        -2.7782 E_bond   =         0.0055 E_angle  =         0.0561 
E_dihed  =         0.0000 E_impro  =         0.0000 E_vdwl   =        -0.0611 
E_coul   =       110.6339 E_long   =      -113.4125 Press    =      -187.5515 
---------------- Step     1500 ----- CPU =      0.1919 (sec) ----------------
TotEng   =        -2.7077 KinEng   =         0.0799 Temp     =         5.3615 
PotEng   =        -2.7876 E_bond   =         0.0056 E_angle  =         0.0626 
E_dihed  =         0.0000 E_impro  =         0.0000 E_vdwl   =        -0.0627 
E_coul   =       110.6155 E_long   =      -113.4086 Press    =      -188.3967 
---------------- Step     1510 ----- CPU =      0.1930 (sec) ----------------
TotEng   =        -2.7178 KinEng   =         0.0800 Temp     =         5.3654 
PotEng   =        -2.7978 E_bond   =         0.0055 E_angle  =         0.0565 
E_dihed  =         0.0000 E_impro  =         0.0000 E_vdwl   =        -0.0644 
E_coul   =       110.6087 E_long   =      -113.4041 Press    =      -189.2098 
---------------- Step     1520 ----- CPU =      0.1941 (sec) ----------------
TotEng   =        -2.7280 KinEng   =         0.0812 Temp     =         5.4460 
PotEng   =        -2.8092 E_bond   =         0.0056 E_angle  =         0.0631 
E_dihed  =         0.0000 E_impro  =         0.0000 E_vdwl   =        -0.0662 
E_coul   =       110.5874 E_long   =      -113.3991 Press    =      -189.9116 
---------------- Step     1530 ----- CPU =      0.1951 (sec) ----------------
TotEng   =        -2.7385 KinEng   =         0.0836 Temp     =         5.6124 
PotEng   =        -2.8221 E_bond   =         0.0056 E_angle  =         0.0615 
E_dihed  =         0.0000 E_impro  =         0.0000 E_vdwl   =        -0.0682 
E_coul   =       110.5726 E_long   =      -113.3936 Press    =      -190.5667 
---------------- Step     1540 ----- CPU =      0.1965 (sec) ----------------
TotEng   =        -2.7494 KinEng   =         0.0876 Temp     =         5.8756 
PotEng   =        -2.8370 E_bond   =         0.0056 E_angle  =         0.0612 
E_dihed  =         0.0000 E_impro  =         0.0000 E_vdwl   =        -0.0703 
E_coul   =       110.5544 E_long   =      -113.3878 Press    =      -191.1364 
---------------- Step     1550 ----- CPU =      0.2070 (sec) ----------------
TotEng   =        -2.7609 KinEng   =         0.0931 Temp     =         6.2435 
PotEng   =        -2.8540 E_bond   =         0.0057 E_angle  =         0.0671 
E_dihed  =         0.0000 E_impro  =         0.0000 E_vdwl   =        -0.0726 
E_coul   =       110.5275 E_long   =      -113.3816 Press    =      -191.6493 
---------------- Step     1560 ----- CPU =      0.2080 (sec) ----------------
TotEng   =        -2.7734 KinEng   =         0.1002 Temp     =         6.7203 
PotEng   =        -2.8735 E_bond   =         0.0056 E_angle  =         0.0622 
E_dihed  =         0.0000 E_impro  =         0.0000 E_vdwl   =        -0.0751 
E_coul   =       110.5087 E_long   =      -113.3750 Press    =      -192.2005 
---------------- Step     1570 ----- CPU =      0.2090 (sec) ----------------
TotEng   =        -2.7868 KinEng   =         0.1089 Temp     =         7.3054 
PotEng   =        -2.8957 E_bond   =         0.0057 E_angle  =         0.0690 
E_dihed  =         0.0000 E_impro  =         0.0000 E_vdwl   =        -0.0777 
E_coul   =       110.4752 E_long   =      -113.3679 Press    =      -192.7430 
---------------- Step     1580 ----- CPU =      0.2099 (sec) ----------------
TotEng   =        -2.8017 KinEng   =         0.1191 Temp     =         7.9914 
PotEng   =        -2.9208 E_bond   =         0.0057 E_angle  =         0.0677 
E_dihed  =         0.0000 E_impro  =         0.0000 E_vdwl   =        -0.0806 
E_coul   =       110.4466 E_long   =      -113.3602 Press    =      -193.4045 
---------------- Step     1590 ----- CPU =      0.2109 (sec) ----------------
TotEng   =        -2.8183 KinEng   =         0.1307 Temp     =         8.7706 
PotEng   =        -2.9490 E_bond   =         0.0057 E_angle  =         0.0688 
E_dihed  =         0.0000 E_impro  =         0.0000 E_vdwl   =        -0.0837 
E_coul   =       110.4119 E_long   =      -113.3518 Press    =      -194.2212 
---------------- Step     1600 ----- CPU =      0.2121 (sec) ----------------
TotEng   =        -2.8366 KinEng   =         0.1436 Temp     =         9.6377 
PotEng   =        -2.9803 E_bond   =         0.0058 E_angle  =         0.0743 
E_dihed  =         0.0000 E_impro  =         0.0000 E_vdwl   =        -0.0871 
E_coul   =       110.3691 E_long   =      -113.3424 Press    =      -195.1635 
---------------- Step     1610 ----- CPU =      0.2130 (sec) ----------------
TotEng   =        -2.8571 KinEng   =         0.1578 Temp     =        10.5900 
PotEng   =        -3.0150 E_bond   =         0.0059 E_angle  =         0.0710 
E_dihed  =         0.0000 E_impro  =         0.0000 E_vdwl   =        -0.0907 
E_coul   =       110.3312 E_long   =      -113.3323 Press    =      -196.3036 
---------------- Step     1620 ----- CPU =      0.2140 (sec) ----------------
TotEng   =        -2.8801 KinEng   =         0.1733 Temp     =        11.6265 
PotEng   =        -3.0534 E_bond   =         0.0060 E_angle  =         0.0782 
E_dihed  =         0.0000 E_impro  =         0.0000 E_vdwl   =        -0.0946 
E_coul   =       110.2779 E_long   =      -113.3209 Press    =      -197.7399 
---------------- Step     1630 ----- CPU =      0.2152 (sec) ----------------
TotEng   =        -2.9058 KinEng   =         0.1900 Temp     =        12.7451 
PotEng   =        -3.0958 E_bond   =         0.0061 E_angle  =         0.0776 
E_dihed  =         0.0000 E_impro  =         0.0000 E_vdwl   =        -0.0989 
E_coul   =       110.2278 E_long   =      -113.3086 Press    =      -199.4130 
---------------- Step     1640 ----- CPU =      0.2162 (sec) ----------------
TotEng   =        -2.9348 KinEng   =         0.2079 Temp     =        13.9474 
PotEng   =        -3.1427 E_bond   =         0.0063 E_angle  =         0.0804 
E_dihed  =         0.0000 E_impro  =         0.0000 E_vdwl   =        -0.1034 
E_coul   =       110.1689 E_long   =      -113.2948 Press    =      -201.4281 
---------------- Step     1650 ----- CPU =      0.2173 (sec) ----------------
TotEng   =        -2.9673 KinEng   =         0.2271 Temp     =        15.2401 
PotEng   =        -3.1945 E_bond   =         0.0065 E_angle  =         0.0863 
E_dihed  =         0.0000 E_impro  =         0.0000 E_vdwl   =        -0.1083 
E_coul   =       110.1004 E_long   =      -113.2794 Press    =      -203.8036 
---------------- Step     1660 ----- CPU =      0.2183 (sec) ----------------
TotEng   =        -3.0039 KinEng   =         0.2480 Temp     =        16.6366 
PotEng   =        -3.2519 E_bond   =         0.0068 E_angle  =         0.0851 
E_dihed  =         0.0000 E_impro  =         0.0000 E_vdwl   =        -0.1135 
E_coul   =       110.0324 E_long   =      -113.2627 Press    =      -206.4507 
---------------- Step     1670 ----- CPU =      0.2194 (sec) ----------------
TotEng   =        -3.0451 KinEng   =         0.2706 Temp     =        18.1589 
PotEng   =        -3.3157 E_bond   =         0.0071 E_angle  =         0.0937 
E_dihed  =         0.0000 E_impro  =         0.0000 E_vdwl   =        -0.1190 
E_coul   =       109.9461 E_long   =      -113.2436 Press    =      -209.5079 
---------------- Step     1680 ----- CPU =      0.2208 (sec) ----------------
TotEng   =        -3.0915 KinEng   =         0.2956 Temp     =        19.8342 
PotEng   =        -3.3871 E_bond   =         0.0075 E_angle  =         0.0950 
E_dihed  =         0.0000 E_impro  =         0.0000 E_vdwl   =        -0.1247 
E_coul   =       109.8578 E_long   =      -113.2227 Press    =      -212.8933 
---------------- Step     1690 ----- CPU =      0.2219 (sec) ----------------
TotEng   =        -3.1441 KinEng   =         0.3234 Temp     =        21.7015 
PotEng   =        -3.4676 E_bond   =         0.0080 E_angle  =         0.1004 
E_dihed  =         0.0000 E_impro  =         0.0000 E_vdwl   =        -0.1306 
E_coul   =       109.7538 E_long   =      -113.1990 Press    =      -216.7049 
---------------- Step     1700 ----- CPU =      0.2235 (sec) ----------------
TotEng   =        -3.2040 KinEng   =         0.3550 Temp     =        23.8158 
PotEng   =        -3.5589 E_bond   =         0.0086 E_angle  =         0.1084 
E_dihed  =         0.0000 E_impro  =         0.0000 E_vdwl   =        -0.1366 
E_coul   =       109.6329 E_long   =      -113.1723 Press    =      -221.0885 
---------------- Step     1710 ----- CPU =      0.2253 (sec) ----------------
TotEng   =        -3.2721 KinEng   =         0.3914 Temp     =        26.2602 
PotEng   =        -3.6635 E_bond   =         0.0094 E_angle  =         0.1106 
E_dihed  =         0.0000 E_impro  =         0.0000 E_vdwl   =        -0.1423 
E_coul   =       109.5010 E_long   =      -113.1422 Press    =      -225.8778 
---------------- Step     1720 ----- CPU =      0.2269 (sec) ----------------
TotEng   =        -3.3506 KinEng   =         0.4347 Temp     =        29.1659 
PotEng   =        -3.7853 E_bond   =         0.0106 E_angle  =         0.1219 
E_dihed  =         0.0000 E_impro  =         0.0000 E_vdwl   =        -0.1473 
E_coul   =       109.3367 E_long   =      -113.1072 Press    =      -231.6117 
---------------- Step     1730 ----- CPU =      0.2284 (sec) ----------------
TotEng   =        -3.4418 KinEng   =         0.4879 Temp     =        32.7361 
PotEng   =        -3.9297 E_bond   =         0.0123 E_angle  =         0.1265 
E_dihed  =         0.0000 E_impro  =         0.0000 E_vdwl   =        -0.1509 
E_coul   =       109.1497 E_long   =      -113.0672 Press    =      -238.3795 
---------------- Step     1740 ----- CPU =      0.2297 (sec) ----------------
TotEng   =        -3.5496 KinEng   =         0.5557 Temp     =        37.2861 
PotEng   =        -4.1053 E_bond   =         0.0149 E_angle  =         0.1347 
E_dihed  =         0.0000 E_impro  =         0.0000 E_vdwl   =        -0.1520 
E_coul   =       108.9168 E_long   =      -113.0197 Press    =      -247.0562 
---------------- Step     1750 ----- CPU =      0.2307 (sec) ----------------
TotEng   =        -3.6795 KinEng   =         0.6448 Temp     =        43.2659 
PotEng   =        -4.3243 E_bond   =         0.0191 E_angle  =         0.1434 
E_dihed  =         0.0000 E_impro  =         0.0000 E_vdwl   =        -0.1488 
E_coul   =       108.6246 E_long   =      -112.9626 Press    =      -258.4830 
---------------- Step     1760 ----- CPU =      0.2318 (sec) ----------------
TotEng   =        -3.8400 KinEng   =         0.7631 Temp     =        51.2013 
PotEng   =        -4.6031 E_bond   =         0.0260 E_angle  =         0.1441 
E_dihed  =         0.0000 E_impro  =         0.0000 E_vdwl   =        -0.1377 
E_coul   =       108.2582 E_long   =      -112.8936 Press    =      -273.6898 
---------------- Step     1770 ----- CPU =      0.2328 (sec) ----------------
TotEng   =        -4.0434 KinEng   =         0.9144 Temp     =        61.3514 
PotEng   =        -4.9577 E_bond   =         0.0377 E_angle  =         0.1462 
E_dihed  =         0.0000 E_impro  =         0.0000 E_vdwl   =        -0.1129 
E_coul   =       107.7796 E_long   =      -112.8082 Press    =      -293.9792 
---------------- Step     1780 ----- CPU =      0.2338 (sec) ----------------
TotEng   =        -4.3033 KinEng   =         1.0854 Temp     =        72.8263 
PotEng   =        -5.3887 E_bond   =         0.0562 E_angle  =         0.1318 
E_dihed  =         0.0000 E_impro  =         0.0000 E_vdwl   =        -0.0632 
E_coul   =       107.1933 E_long   =      -112.7069 Press    =      -316.9668 
---------------- Step     1790 ----- CPU =      0.2348 (sec) ----------------
TotEng   =        -4.6281 KinEng   =         1.2309 Temp     =        82.5886 
PotEng   =        -5.8590 E_bond   =         0.0831 E_angle  =         0.1085 
E_dihed  =         0.0000 E_impro  =         0.0000 E_vdwl   =         0.0331 
E_coul   =       106.5102 E_long   =      -112.5938 Press    =      -334.3265 
---------------- Step     1800 ----- CPU =      0.2361 (sec) ----------------
TotEng   =        -5.0063 KinEng   =         1.2919 Temp     =        86.6787 
PotEng   =        -6.2981 E_bond   =         0.1163 E_angle  =         0.0793 
E_dihed  =         0.0000 E_impro  =         0.0000 E_vdwl   =         0.2161 
E_coul   =       105.7762 E_long   =      -112.4859 Press    =      -328.3569 
---------------- Step     1810 ----- CPU =      0.2372 (sec) ----------------
TotEng   =        -5.4068 KinEng   =         1.2641 Temp     =        84.8137 
PotEng   =        -6.6708 E_bond   =         0.1554 E_angle  =         0.0566 
E_dihed  =         0.0000 E_impro  =         0.0000 E_vdwl   =         0.5546 
E_coul   =       104.9696 E_long   =      -112.4070 Press    =      -279.7227 
---------------- Step     1820 ----- CPU =      0.2385 (sec) ----------------
TotEng   =        -5.8022 KinEng   =         1.1992 Temp     =        80.4589 
PotEng   =        -7.0014 E_bond   =         0.2076 E_angle  =         0.0552 
E_dihed  =         0.0000 E_impro  =         0.0000 E_vdwl   =         1.1464 
E_coul   =       103.9595 E_long   =      -112.3701 Press    =      -174.2746 
---------------- Step     1830 ----- CPU =      0.2500 (sec) ----------------
TotEng   =        -6.1701 KinEng   =         1.0512 Temp     =        70.5321 
PotEng   =        -7.2213 E_bond   =         0.2788 E_angle  =         0.0758 
E_dihed  =         0.0000 E_impro  =         0.0000 E_vdwl   =         2.0748 
E_coul   =       102.7191 E_long   =      -112.3698 Press    =         2.0951 
---------------- Step     1840 ----- CPU =      0.2510 (sec) ----------------
TotEng   =        -6.4497 KinEng   =         0.6599 Temp     =        44.2760 
PotEng   =        -7.1096 E_bond   =         0.3511 E_angle  =         0.1479 
E_dihed  =         0.0000 E_impro  =         0.0000 E_vdwl   =         3.2594 
E_coul   =       101.5137 E_long   =      -112.3817 Press    =       246.6768 
---------------- Step     1850 ----- CPU =      0.2522 (sec) ----------------
TotEng   =        -6.5699 KinEng   =         0.1560 Temp     =        10.4673 
PotEng   =        -6.7259 E_bond   =         0.3914 E_angle  =         0.2584 
E_dihed  =         0.0000 E_impro  =         0.0000 E_vdwl   =         4.2487 
E_coul   =       100.7671 E_long   =      -112.3915 Press    =       468.8689 
---------------- Step     1860 ----- CPU =      0.2532 (sec) ----------------
TotEng   =        -6.5822 KinEng   =         0.0221 Temp     =         1.4819 
PotEng   =        -6.6043 E_bond   =         0.3909 E_angle  =         0.2974 
E_dihed  =         0.0000 E_impro  =         0.0000 E_vdwl   =         4.4225 
E_coul   =       100.6850 E_long   =      -112.4002 Press    =       512.9032 
---------------- Step     1870 ----- CPU =      0.2545 (sec) ----------------
TotEng   =        -6.6169 KinEng   =         0.2908 Temp     =        19.5136 
PotEng   =        -6.9077 E_bond   =         0.3627 E_angle  =         0.2295 
E_dihed  =         0.0000 E_impro  =         0.0000 E_vdwl   =         3.7442 
E_coul   =       101.1631 E_long   =      -112.4072 Press    =       355.7936 
---------------- Step     1880 ----- CPU =      0.2557 (sec) ----------------
TotEng   =        -6.7140 KinEng   =         0.4884 Temp     =        32.7725 
PotEng   =        -7.2025 E_bond   =         0.3174 E_angle  =         0.1385 
E_dihed  =         0.0000 E_impro  =         0.0000 E_vdwl   =         2.7832 
E_coul   =       101.9663 E_long   =      -112.4080 Press    =       134.4509 
---------------- Step     1890 ----- CPU =      0.2569 (sec) ----------------
TotEng   =        -6.8262 KinEng   =         0.4265 Temp     =        28.6138 
PotEng   =        -7.2527 E_bond   =         0.2684 E_angle  =         0.0897 
E_dihed  =         0.0000 E_impro  =         0.0000 E_vdwl   =         1.9798 
E_coul   =       102.8127 E_long   =      -112.4033 Press    =       -44.4283 
---------------- Step     1900 ----- CPU =      0.2581 (sec) ----------------
TotEng   =        -6.9086 KinEng   =         0.2729 Temp     =        18.3090 
PotEng   =        -7.1815 E_bond   =         0.2290 E_angle  =         0.0757 
E_dihed  =         0.0000 E_impro  =         0.0000 E_vdwl   =         1.4356 
E_coul   =       103.4825 E_long   =      -112.4044 Press    =      -163.2233 
---------------- Step     1910 ----- CPU =      0.2594 (sec) ----------------
TotEng   =        -6.9573 KinEng   =         0.1592 Temp     =        10.6800 
PotEng   =        -7.1165 E_bond   =         0.2021 E_angle  =         0.0838 
E_dihed  =         0.0000 E_impro  =         0.0000 E_vdwl   =         1.1072 
E_coul   =       103.9077 E_long   =      -112.4173 Press    =      -234.5265 
---------------- Step     1920 ----- CPU =      0.2608 (sec) ----------------
TotEng   =        -6.9841 KinEng   =         0.0884 Temp     =         5.9333 
PotEng   =        -7.0725 E_bond   =         0.1836 E_angle  =         0.1073 
E_dihed  =         0.0000 E_impro  =         0.0000 E_vdwl   =         0.9355 
E_coul   =       104.1373 E_long   =      -112.4362 Press    =      -268.2610 
---------------- Step     1930 ----- CPU =      0.2620 (sec) ----------------
TotEng   =        -6.9974 KinEng   =         0.0442 Temp     =         2.9647 
PotEng   =        -7.0416 E_bond   =         0.1716 E_angle  =         0.1345 
E_dihed  =         0.0000 E_impro  =         0.0000 E_vdwl   =         0.8797 
E_coul   =       104.2228 E_long   =      -112.4502 Press    =      -272.9827 
---------------- Step     1940 ----- CPU =      0.2630 (sec) ----------------
TotEng   =        -7.0048 KinEng   =         0.0380 Temp     =         2.5506 
PotEng   =        -7.0428 E_bond   =         0.1689 E_angle  =         0.1579 
E_dihed  =         0.0000 E_impro  =         0.0000 E_vdwl   =         0.9204 
E_coul   =       104.1596 E_long   =      -112.4496 Press    =      -257.8800 
---------------- Step     1950 ----- CPU =      0.2641 (sec) ----------------
TotEng   =        -7.0152 KinEng   =         0.0806 Temp     =         5.4074 
PotEng   =        -7.0958 E_bond   =         0.1784 E_angle  =         0.1670 
E_dihed  =         0.0000 E_impro  =         0.0000 E_vdwl   =         1.0548 
E_coul   =       103.9354 E_long   =      -112.4314 Press    =      -228.5852 
---------------- Step     1960 ----- CPU =      0.2651 (sec) ----------------
TotEng   =        -7.0363 KinEng   =         0.1513 Temp     =        10.1534 
PotEng   =        -7.1876 E_bond   =         0.2015 E_angle  =         0.1599 
[...]
E_dihed  =         0.0000 E_impro  =         0.0000 E_vdwl   =         2.0130 
E_coul   =       102.6500 E_long   =      -112.3828 Press    =       -54.1757 
---------------- Step    19540 ----- CPU =      3.0209 (sec) ----------------
TotEng   =        -7.3220 KinEng   =         0.0015 Temp     =         0.0996 
PotEng   =        -7.3235 E_bond   =         0.2649 E_angle  =         0.1299 
E_dihed  =         0.0000 E_impro  =         0.0000 E_vdwl   =         2.0042 
E_coul   =       102.6617 E_long   =      -112.3842 Press    =       -56.2699 
---------------- Step    19550 ----- CPU =      3.0220 (sec) ----------------
TotEng   =        -7.3220 KinEng   =         0.0016 Temp     =         0.1087 
PotEng   =        -7.3236 E_bond   =         0.2642 E_angle  =         0.1296 
E_dihed  =         0.0000 E_impro  =         0.0000 E_vdwl   =         1.9950 
E_coul   =       102.6738 E_long   =      -112.3862 Press    =       -58.2838 
---------------- Step    19560 ----- CPU =      3.0231 (sec) ----------------
TotEng   =        -7.3220 KinEng   =         0.0018 Temp     =         0.1176 
PotEng   =        -7.3237 E_bond   =         0.2634 E_angle  =         0.1303 
E_dihed  =         0.0000 E_impro  =         0.0000 E_vdwl   =         1.9873 
E_coul   =       102.6837 E_long   =      -112.3884 Press    =       -59.8292 
---------------- Step    19570 ----- CPU =      3.0242 (sec) ----------------
TotEng   =        -7.3221 KinEng   =         0.0019 Temp     =         0.1248 
PotEng   =        -7.3239 E_bond   =         0.2628 E_angle  =         0.1315 
E_dihed  =         0.0000 E_impro  =         0.0000 E_vdwl   =         1.9830 
E_coul   =       102.6891 E_long   =      -112.3903 Press    =       -60.6445 
---------------- Step    19580 ----- CPU =      3.0254 (sec) ----------------
TotEng   =        -7.3220 KinEng   =         0.0020 Temp     =         0.1341 
PotEng   =        -7.3240 E_bond   =         0.2626 E_angle  =         0.1322 
E_dihed  =         0.0000 E_impro  =         0.0000 E_vdwl   =         1.9835 
E_coul   =       102.6890 E_long   =      -112.3914 Press    =       -60.4428 
---------------- Step    19590 ----- CPU =      3.0266 (sec) ----------------
TotEng   =        -7.3220 KinEng   =         0.0022 Temp     =         0.1507 
PotEng   =        -7.3242 E_bond   =         0.2630 E_angle  =         0.1324 
E_dihed  =         0.0000 E_impro  =         0.0000 E_vdwl   =         1.9889 
E_coul   =       102.6827 E_long   =      -112.3913 Press    =       -59.3212 
---------------- Step    19600 ----- CPU =      3.0279 (sec) ----------------
TotEng   =        -7.3218 KinEng   =         0.0026 Temp     =         0.1722 
PotEng   =        -7.3244 E_bond   =         0.2640 E_angle  =         0.1315 
E_dihed  =         0.0000 E_impro  =         0.0000 E_vdwl   =         1.9984 
E_coul   =       102.6719 E_long   =      -112.3902 Press    =       -57.4007 
---------------- Step    19610 ----- CPU =      3.0291 (sec) ----------------
TotEng   =        -7.3218 KinEng   =         0.0028 Temp     =         0.1897 
PotEng   =        -7.3246 E_bond   =         0.2651 E_angle  =         0.1305 
E_dihed  =         0.0000 E_impro  =         0.0000 E_vdwl   =         2.0098 
E_coul   =       102.6584 E_long   =      -112.3886 Press    =       -55.1688 
---------------- Step    19620 ----- CPU =      3.0303 (sec) ----------------
TotEng   =        -7.3217 KinEng   =         0.0030 Temp     =         0.2003 
PotEng   =        -7.3247 E_bond   =         0.2661 E_angle  =         0.1299 
E_dihed  =         0.0000 E_impro  =         0.0000 E_vdwl   =         2.0206 
E_coul   =       102.6455 E_long   =      -112.3869 Press    =       -52.9988 
---------------- Step    19630 ----- CPU =      3.0314 (sec) ----------------
TotEng   =        -7.3217 KinEng   =         0.0031 Temp     =         0.2084 
PotEng   =        -7.3248 E_bond   =         0.2667 E_angle  =         0.1302 
E_dihed  =         0.0000 E_impro  =         0.0000 E_vdwl   =         2.0281 
E_coul   =       102.6360 E_long   =      -112.3858 Press    =       -51.3606 
---------------- Step    19640 ----- CPU =      3.0325 (sec) ----------------
TotEng   =        -7.3216 KinEng   =         0.0032 Temp     =         0.2166 
PotEng   =        -7.3249 E_bond   =         0.2667 E_angle  =         0.1315 
E_dihed  =         0.0000 E_impro  =         0.0000 E_vdwl   =         2.0309 
E_coul   =       102.6317 E_long   =      -112.3856 Press    =       -50.6101 
---------------- Step    19650 ----- CPU =      3.0340 (sec) ----------------
TotEng   =        -7.3216 KinEng   =         0.0033 Temp     =         0.2232 
PotEng   =        -7.3249 E_bond   =         0.2662 E_angle  =         0.1329 
E_dihed  =         0.0000 E_impro  =         0.0000 E_vdwl   =         2.0284 
E_coul   =       102.6338 E_long   =      -112.3861 Press    =       -50.9062 
---------------- Step    19660 ----- CPU =      3.0353 (sec) ----------------
TotEng   =        -7.3215 KinEng   =         0.0034 Temp     =         0.2288 
PotEng   =        -7.3249 E_bond   =         0.2654 E_angle  =         0.1340 
E_dihed  =         0.0000 E_impro  =         0.0000 E_vdwl   =         2.0214 
E_coul   =       102.6416 E_long   =      -112.3873 Press    =       -52.2101 
---------------- Step    19670 ----- CPU =      3.0366 (sec) ----------------
TotEng   =        -7.3213 KinEng   =         0.0035 Temp     =         0.2373 
PotEng   =        -7.3248 E_bond   =         0.2647 E_angle  =         0.1338 
E_dihed  =         0.0000 E_impro  =         0.0000 E_vdwl   =         2.0116 
E_coul   =       102.6538 E_long   =      -112.3886 Press    =       -54.2629 
---------------- Step    19680 ----- CPU =      3.0379 (sec) ----------------
TotEng   =        -7.3215 KinEng   =         0.0037 Temp     =         0.2473 
PotEng   =        -7.3251 E_bond   =         0.2641 E_angle  =         0.1324 
E_dihed  =         0.0000 E_impro  =         0.0000 E_vdwl   =         2.0007 
E_coul   =       102.6676 E_long   =      -112.3900 Press    =       -56.8983 
---------------- Step    19690 ----- CPU =      3.0388 (sec) ----------------
TotEng   =        -7.3214 KinEng   =         0.0037 Temp     =         0.2510 
PotEng   =        -7.3251 E_bond   =         0.2637 E_angle  =         0.1305 
E_dihed  =         0.0000 E_impro  =         0.0000 E_vdwl   =         1.9908 
E_coul   =       102.6812 E_long   =      -112.3914 Press    =       -59.3243 
---------------- Step    19700 ----- CPU =      3.0399 (sec) ----------------
TotEng   =        -7.3213 KinEng   =         0.0037 Temp     =         0.2464 
PotEng   =        -7.3250 E_bond   =         0.2635 E_angle  =         0.1288 
E_dihed  =         0.0000 E_impro  =         0.0000 E_vdwl   =         1.9831 
E_coul   =       102.6924 E_long   =      -112.3928 Press    =       -61.2032 
---------------- Step    19710 ----- CPU =      3.0410 (sec) ----------------
TotEng   =        -7.3213 KinEng   =         0.0036 Temp     =         0.2406 
PotEng   =        -7.3249 E_bond   =         0.2633 E_angle  =         0.1282 
E_dihed  =         0.0000 E_impro  =         0.0000 E_vdwl   =         1.9790 
E_coul   =       102.6989 E_long   =      -112.3943 Press    =       -62.1849 
---------------- Step    19720 ----- CPU =      3.0420 (sec) ----------------
TotEng   =        -7.3212 KinEng   =         0.0036 Temp     =         0.2388 
PotEng   =        -7.3248 E_bond   =         0.2631 E_angle  =         0.1287 
E_dihed  =         0.0000 E_impro  =         0.0000 E_vdwl   =         1.9793 
E_coul   =       102.6998 E_long   =      -112.3957 Press    =       -62.0579 
---------------- Step    19730 ----- CPU =      3.0431 (sec) ----------------
TotEng   =        -7.3210 KinEng   =         0.0036 Temp     =         0.2386 
PotEng   =        -7.3246 E_bond   =         0.2631 E_angle  =         0.1302 
E_dihed  =         0.0000 E_impro  =         0.0000 E_vdwl   =         1.9841 
E_coul   =       102.6946 E_long   =      -112.3967 Press    =       -60.7783 
---------------- Step    19740 ----- CPU =      3.0440 (sec) ----------------
TotEng   =        -7.3209 KinEng   =         0.0035 Temp     =         0.2373 
PotEng   =        -7.3244 E_bond   =         0.2635 E_angle  =         0.1317 
E_dihed  =         0.0000 E_impro  =         0.0000 E_vdwl   =         1.9933 
E_coul   =       102.6839 E_long   =      -112.3969 Press    =       -58.5817 
---------------- Step    19750 ----- CPU =      3.0454 (sec) ----------------
TotEng   =        -7.3208 KinEng   =         0.0035 Temp     =         0.2373 
PotEng   =        -7.3244 E_bond   =         0.2643 E_angle  =         0.1324 
E_dihed  =         0.0000 E_impro  =         0.0000 E_vdwl   =         2.0056 
E_coul   =       102.6694 E_long   =      -112.3961 Press    =       -55.8710 
---------------- Step    19760 ----- CPU =      3.0466 (sec) ----------------
TotEng   =        -7.3208 KinEng   =         0.0036 Temp     =         0.2396 
PotEng   =        -7.3244 E_bond   =         0.2654 E_angle  =         0.1321 
E_dihed  =         0.0000 E_impro  =         0.0000 E_vdwl   =         2.0189 
E_coul   =       102.6536 E_long   =      -112.3944 Press    =       -53.1038 
---------------- Step    19770 ----- CPU =      3.0478 (sec) ----------------
TotEng   =        -7.3208 KinEng   =         0.0036 Temp     =         0.2392 
PotEng   =        -7.3244 E_bond   =         0.2666 E_angle  =         0.1310 
E_dihed  =         0.0000 E_impro  =         0.0000 E_vdwl   =         2.0304 
E_coul   =       102.6399 E_long   =      -112.3923 Press    =       -50.8765 
---------------- Step    19780 ----- CPU =      3.0492 (sec) ----------------
TotEng   =        -7.3208 KinEng   =         0.0035 Temp     =         0.2346 
PotEng   =        -7.3243 E_bond   =         0.2674 E_angle  =         0.1300 
E_dihed  =         0.0000 E_impro  =         0.0000 E_vdwl   =         2.0372 
E_coul   =       102.6313 E_long   =      -112.3903 Press    =       -49.5926 
---------------- Step    19790 ----- CPU =      3.0551 (sec) ----------------
TotEng   =        -7.3208 KinEng   =         0.0035 Temp     =         0.2329 
PotEng   =        -7.3242 E_bond   =         0.2675 E_angle  =         0.1296 
E_dihed  =         0.0000 E_impro  =         0.0000 E_vdwl   =         2.0376 
E_coul   =       102.6301 E_long   =      -112.3890 Press    =       -49.5325 
---------------- Step    19800 ----- CPU =      3.0591 (sec) ----------------
TotEng   =        -7.3207 KinEng   =         0.0036 Temp     =         0.2395 
PotEng   =        -7.3243 E_bond   =         0.2669 E_angle  =         0.1302 
E_dihed  =         0.0000 E_impro  =         0.0000 E_vdwl   =         2.0310 
E_coul   =       102.6363 E_long   =      -112.3887 Press    =       -50.8111 
---------------- Step    19810 ----- CPU =      3.0602 (sec) ----------------
TotEng   =        -7.3207 KinEng   =         0.0037 Temp     =         0.2500 
PotEng   =        -7.3244 E_bond   =         0.2657 E_angle  =         0.1315 
E_dihed  =         0.0000 E_impro  =         0.0000 E_vdwl   =         2.0188 
E_coul   =       102.6490 E_long   =      -112.3893 Press    =       -53.1571 
---------------- Step    19820 ----- CPU =      3.0613 (sec) ----------------
TotEng   =        -7.3206 KinEng   =         0.0038 Temp     =         0.2578 
PotEng   =        -7.3244 E_bond   =         0.2643 E_angle  =         0.1326 
E_dihed  =         0.0000 E_impro  =         0.0000 E_vdwl   =         2.0037 
E_coul   =       102.6655 E_long   =      -112.3904 Press    =       -56.1452 
---------------- Step    19830 ----- CPU =      3.0623 (sec) ----------------
TotEng   =        -7.3206 KinEng   =         0.0039 Temp     =         0.2643 
PotEng   =        -7.3246 E_bond   =         0.2631 E_angle  =         0.1329 
E_dihed  =         0.0000 E_impro  =         0.0000 E_vdwl   =         1.9889 
E_coul   =       102.6822 E_long   =      -112.3915 Press    =       -59.2637 
---------------- Step    19840 ----- CPU =      3.0635 (sec) ----------------
TotEng   =        -7.3206 KinEng   =         0.0041 Temp     =         0.2736 
PotEng   =        -7.3246 E_bond   =         0.2623 E_angle  =         0.1319 
E_dihed  =         0.0000 E_impro  =         0.0000 E_vdwl   =         1.9773 
E_coul   =       102.6960 E_long   =      -112.3922 Press    =       -61.8201 
---------------- Step    19850 ----- CPU =      3.0656 (sec) ----------------
TotEng   =        -7.3205 KinEng   =         0.0042 Temp     =         0.2835 
PotEng   =        -7.3247 E_bond   =         0.2622 E_angle  =         0.1303 
E_dihed  =         0.0000 E_impro  =         0.0000 E_vdwl   =         1.9710 
E_coul   =       102.7042 E_long   =      -112.3924 Press    =       -63.4039 
---------------- Step    19860 ----- CPU =      3.0666 (sec) ----------------
TotEng   =        -7.3204 KinEng   =         0.0043 Temp     =         0.2915 
PotEng   =        -7.3247 E_bond   =         0.2625 E_angle  =         0.1285 
E_dihed  =         0.0000 E_impro  =         0.0000 E_vdwl   =         1.9709 
E_coul   =       102.7054 E_long   =      -112.3922 Press    =       -63.6607 
---------------- Step    19870 ----- CPU =      3.0677 (sec) ----------------
TotEng   =        -7.3203 KinEng   =         0.0045 Temp     =         0.3014 
PotEng   =        -7.3248 E_bond   =         0.2631 E_angle  =         0.1278 
E_dihed  =         0.0000 E_impro  =         0.0000 E_vdwl   =         1.9767 
E_coul   =       102.6993 E_long   =      -112.3917 Press    =       -62.5526 
---------------- Step    19880 ----- CPU =      3.0689 (sec) ----------------
TotEng   =        -7.3203 KinEng   =         0.0047 Temp     =         0.3171 
PotEng   =        -7.3250 E_bond   =         0.2638 E_angle  =         0.1282 
E_dihed  =         0.0000 E_impro  =         0.0000 E_vdwl   =         1.9873 
E_coul   =       102.6868 E_long   =      -112.3911 Press    =       -60.2190 
---------------- Step    19890 ----- CPU =      3.0703 (sec) ----------------
TotEng   =        -7.3200 KinEng   =         0.0050 Temp     =         0.3331 
PotEng   =        -7.3250 E_bond   =         0.2645 E_angle  =         0.1299 
E_dihed  =         0.0000 E_impro  =         0.0000 E_vdwl   =         2.0010 
E_coul   =       102.6700 E_long   =      -112.3903 Press    =       -56.9969 
---------------- Step    19900 ----- CPU =      3.0714 (sec) ----------------
TotEng   =        -7.3200 KinEng   =         0.0051 Temp     =         0.3406 
PotEng   =        -7.3250 E_bond   =         0.2652 E_angle  =         0.1318 
E_dihed  =         0.0000 E_impro  =         0.0000 E_vdwl   =         2.0159 
E_coul   =       102.6514 E_long   =      -112.3893 Press    =       -53.5344 
---------------- Step    19910 ----- CPU =      3.0724 (sec) ----------------
TotEng   =        -7.3198 KinEng   =         0.0051 Temp     =         0.3409 
PotEng   =        -7.3249 E_bond   =         0.2660 E_angle  =         0.1331 
E_dihed  =         0.0000 E_impro  =         0.0000 E_vdwl   =         2.0296 
E_coul   =       102.6341 E_long   =      -112.3877 Press    =       -50.3568 
---------------- Step    19920 ----- CPU =      3.0734 (sec) ----------------
TotEng   =        -7.3197 KinEng   =         0.0051 Temp     =         0.3417 
PotEng   =        -7.3248 E_bond   =         0.2667 E_angle  =         0.1334 
E_dihed  =         0.0000 E_impro  =         0.0000 E_vdwl   =         2.0398 
E_coul   =       102.6211 E_long   =      -112.3857 Press    =       -48.1642 
---------------- Step    19930 ----- CPU =      3.0744 (sec) ----------------
TotEng   =        -7.3197 KinEng   =         0.0051 Temp     =         0.3443 
PotEng   =        -7.3248 E_bond   =         0.2673 E_angle  =         0.1322 
E_dihed  =         0.0000 E_impro  =         0.0000 E_vdwl   =         2.0442 
E_coul   =       102.6150 E_long   =      -112.3836 Press    =       -47.3679 
---------------- Step    19940 ----- CPU =      3.0755 (sec) ----------------
TotEng   =        -7.3196 KinEng   =         0.0051 Temp     =         0.3444 
PotEng   =        -7.3247 E_bond   =         0.2675 E_angle  =         0.1308 
E_dihed  =         0.0000 E_impro  =         0.0000 E_vdwl   =         2.0414 
E_coul   =       102.6173 E_long   =      -112.3818 Press    =       -48.1375 
---------------- Step    19950 ----- CPU =      3.0764 (sec) ----------------
TotEng   =        -7.3195 KinEng   =         0.0051 Temp     =         0.3421 
PotEng   =        -7.3246 E_bond   =         0.2670 E_angle  =         0.1296 
E_dihed  =         0.0000 E_impro  =         0.0000 E_vdwl   =         2.0315 
E_coul   =       102.6281 E_long   =      -112.3807 Press    =       -50.3657 
---------------- Step    19960 ----- CPU =      3.0775 (sec) ----------------
TotEng   =        -7.3194 KinEng   =         0.0051 Temp     =         0.3402 
PotEng   =        -7.3245 E_bond   =         0.2659 E_angle  =         0.1295 
E_dihed  =         0.0000 E_impro  =         0.0000 E_vdwl   =         2.0157 
E_coul   =       102.6451 E_long   =      -112.3807 Press    =       -53.6585 
---------------- Step    19970 ----- CPU =      3.0787 (sec) ----------------
TotEng   =        -7.3193 KinEng   =         0.0050 Temp     =         0.3351 
PotEng   =        -7.3243 E_bond   =         0.2642 E_angle  =         0.1303 
E_dihed  =         0.0000 E_impro  =         0.0000 E_vdwl   =         1.9972 
E_coul   =       102.6655 E_long   =      -112.3816 Press    =       -57.4025 
---------------- Step    19980 ----- CPU =      3.0798 (sec) ----------------
TotEng   =        -7.3191 KinEng   =         0.0048 Temp     =         0.3203 
PotEng   =        -7.3239 E_bond   =         0.2626 E_angle  =         0.1315 
E_dihed  =         0.0000 E_impro  =         0.0000 E_vdwl   =         1.9797 
E_coul   =       102.6852 E_long   =      -112.3829 Press    =       -60.8069 
---------------- Step    19990 ----- CPU =      3.0808 (sec) ----------------
TotEng   =        -7.3190 KinEng   =         0.0045 Temp     =         0.2992 
PotEng   =        -7.3235 E_bond   =         0.2614 E_angle  =         0.1324 
E_dihed  =         0.0000 E_impro  =         0.0000 E_vdwl   =         1.9668 
E_coul   =       102.7000 E_long   =      -112.3841 Press    =       -63.3779 
---------------- Step    20000 ----- CPU =      3.0819 (sec) ----------------
TotEng   =        -7.3190 KinEng   =         0.0042 Temp     =         0.2829 
PotEng   =        -7.3232 E_bond   =         0.2610 E_angle  =         0.1321 
E_dihed  =         0.0000 E_impro  =         0.0000 E_vdwl   =         1.9613 
E_coul   =       102.7072 E_long   =      -112.3847 Press    =       -64.5584 
Loop time of 3.08195 on 2 procs for 20000 steps with 6 atoms

Performance: 560.684 ns/day, 0.043 hours/ns, 6489.398 timesteps/s
69.6% CPU use with 2 MPI tasks x no OpenMP threads

MPI task timing breakdown:
Section |  min time  |  avg time  |  max time  |%varavg| %total
---------------------------------------------------------------
Pair    | 0.01218    | 0.043932   | 0.075684   |  15.1 |  1.43
Bond    | 0.008925   | 0.015941   | 0.022957   |   5.6 |  0.52
Kspace  | 0.363      | 0.39182    | 0.42065    |   4.6 | 12.71
Neigh   | 0.042938   | 0.043      | 0.043063   |   0.0 |  1.40
Comm    | 0.74712    | 1.1409     | 1.5346     |  36.9 | 37.02
Output  | 0.8689     | 0.97497    | 1.081      |  10.7 | 31.63
Modify  | 0.22394    | 0.44809    | 0.67224    |  33.5 | 14.54
Other   |            | 0.02333    |            |       |  0.76

Nlocal:    3 ave 6 max 0 min
Histogram: 1 0 0 0 0 0 0 0 0 1
Nghost:    154.5 ave 156 max 153 min
Histogram: 1 0 0 0 0 0 0 0 0 1
Neighs:    61.5 ave 123 max 0 min
Histogram: 1 0 0 0 0 0 0 0 0 1

Total # of neighbors = 123
Ave neighs/atom = 20.5
Ave special neighs/atom = 2
Neighbor list builds = 2000
Dangerous builds = 0
write_data SPCF_250.init nocoeff
EwaldDisp initialization ...
  G vector = 0.311077   accuracy = 0.000332064
Total wall time: 0:00:03
