LAMMPS data file via write_data, version 16 Mar 2018, timestep = 20001

6 atoms
2 atom types
4 bonds
1 bond types
2 angles
1 angle types

-4.9999984117716050e+00 4.9999984117716050e+00 xlo xhi
-4.9999984117716050e+00 4.9999984117716050e+00 ylo yhi
-4.9999984117716050e+00 4.9999984117716050e+00 zlo zhi

Masses

1 15.999
2 1.008

Atoms # full

2 1 2 4.0339999999999998e-01 -2.2921815488377195e-01 7.7902448739140873e-01 -4.0136911324952962e-01 0 0 0
3 1 2 4.0339999999999998e-01 -7.6259569819237250e-01 -7.5936772015299958e-01 -2.3713809213665193e-01 0 0 0
1 1 1 -8.0679999999999996e-01 -2.3323466916461655e-01 -2.6340341040680393e-02 1.9583986911981111e-01 0 0 0
4 2 1 -8.0679999999999996e-01 3.3379816927518213e-01 3.9540554699816433e-02 2.9095420749900569e+00 0 0 0
5 2 2 4.0339999999999998e-01 1.2783295917086646e+00 -2.5539410819289987e-01 3.0470382283055564e+00 0 0 0
6 2 2 4.0339999999999998e-01 1.1733735795335054e-01 2.6223235468818551e-02 1.9188272201716732e+00 0 0 0

Velocities

2 2.0463727894923620e-03 -1.5946390803107243e-03 -2.1691977602567893e-03
3 1.6811040975831520e-03 1.0641410449088194e-04 -1.3978085747275578e-03
1 -2.1708325710347842e-04 2.8197726418452038e-04 8.1810062304469853e-06
4 -6.3191496543312759e-05 -4.5223604837118457e-05 2.5934701779255031e-04
5 1.0966282586846366e-04 -5.0046030099584185e-04 -9.5234406412659383e-04
6 6.1138785014636392e-04 -1.7690744413379237e-03 2.7313923210380481e-04

Bonds

1 1 1 2
2 1 1 3
3 1 4 5
4 1 4 6

Angles

1 1 2 1 3
2 1 5 4 6
