LAMMPS data file via write_data, version 16 Mar 2018, timestep = 20000

6 atoms
2 atom types
4 bonds
1 bond types
2 angles
1 angle types

-5.0000000000000000e+00 5.0000000000000000e+00 xlo xhi
-5.0000000000000000e+00 5.0000000000000000e+00 ylo yhi
-5.0000000000000000e+00 5.0000000000000000e+00 zlo zhi

Masses

1 15.999
2 1.008

Atoms # full

2 1 2 4.0339999999999998e-01 -1.7343624842516453e-01 -1.0760785523585366e+00 -1.7560992653173819e+00 0 0 0
1 1 1 -8.0679999999999996e-01 -1.4921461145606341e-01 -1.8144226034567432e-01 -2.2124006977914807e+00 0 0 0
3 1 2 4.0339999999999998e-01 -5.1913353544232010e-01 4.9864539141084463e-01 -1.5720955409985342e+00 0 0 0
5 2 2 4.0339999999999998e-01 1.7954925835692557e-02 3.6012613021701140e-02 -3.9141101182961493e+00 0 0 1
4 2 1 -8.0679999999999996e-01 2.4142081783629146e-01 1.8892064322443827e-01 -4.9021734119155163e+00 0 0 1
6 2 2 4.0339999999999998e-01 1.2111157549801084e+00 4.2272347681939110e-01 -4.9391720781646553e+00 0 0 1

Velocities

2 1.0515320564181848e-03 2.0728011115441797e-05 3.6063374379712509e-04
1 1.1574787357652549e-04 -1.3419046123600044e-04 9.2255652520555933e-06
3 -9.2525073632393647e-04 -3.2737438625249658e-04 -3.8680109596756808e-04
5 6.4768011807878962e-05 -1.5949971897777294e-05 1.8761733069013972e-05
4 -1.1764661007905926e-04 1.3616160581198856e-04 6.5002106136205034e-07
6 -1.6091254092587661e-04 2.9131029339290874e-04 -1.4933992199788159e-04

Bonds

1 1 1 2
2 1 1 3
3 1 4 5
4 1 4 6

Angles

1 1 2 1 3
2 1 5 4 6
