ITEM: TIMESTEP
0
ITEM: NUMBER OF ATOMS
6
ITEM: BOX BOUNDS pp pp pp
-5.0000000000000000e+00 5.0000000000000000e+00
-5.0000000000000000e+00 5.0000000000000000e+00
-5.0000000000000000e+00 5.0000000000000000e+00
ITEM: ATOMS id type xs ys zs
1 1 0.5 0.5 0.5
2 2 0.5 0.5 0.4
3 2 0.6 0.5 0.5
4 1 0.5 0.5 0.8
5 2 0.5 0.5 0.9
6 2 0.6 0.5 0.8
ITEM: TIMESTEP
100
ITEM: NUMBER OF ATOMS
6
ITEM: BOX BOUNDS pp pp pp
-5.0000000000000000e+00 5.0000000000000000e+00
-5.0000000000000000e+00 5.0000000000000000e+00
-5.0000000000000000e+00 5.0000000000000000e+00
ITEM: ATOMS id type xs ys zs
1 1 0.498302 0.5 0.444878
2 2 0.540805 0.5 0.351085
3 2 0.586148 0.5 0.498865
4 1 0.498302 0.5 0.855122
5 2 0.540805 0.5 0.948915
6 2 0.586148 0.5 0.801135
ITEM: TIMESTEP
200
ITEM: NUMBER OF ATOMS
6
ITEM: BOX BOUNDS pp pp pp
-5.0000000000000000e+00 5.0000000000000000e+00
-5.0000000000000000e+00 5.0000000000000000e+00
-5.0000000000000000e+00 5.0000000000000000e+00
ITEM: ATOMS id type xs ys zs
1 1 0.498489 0.5 0.365967
2 2 0.582746 0.5 0.302826
3 2 0.541234 0.5 0.462424
4 1 0.498489 0.5 0.934033
5 2 0.582746 0.5 0.997174
6 2 0.541234 0.5 0.837576
ITEM: TIMESTEP
300
ITEM: NUMBER OF ATOMS
6
ITEM: BOX BOUNDS pp pp pp
-5.0000000000000000e+00 5.0000000000000000e+00
-5.0000000000000000e+00 5.0000000000000000e+00
-5.0000000000000000e+00 5.0000000000000000e+00
ITEM: ATOMS id type xs ys zs
1 1 0.49952 0.5 0.318025
2 2 0.597992 0.5 0.290504
3 2 0.509632 0.5 0.419938
4 1 0.49952 0.5 0.981975
5 2 0.597992 0.5 0.00949557
6 2 0.509632 0.5 0.880062
ITEM: TIMESTEP
400
ITEM: NUMBER OF ATOMS
6
ITEM: BOX BOUNDS pp pp pp
-5.0000000000000000e+00 5.0000000000000000e+00
-5.0000000000000000e+00 5.0000000000000000e+00
-5.0000000000000000e+00 5.0000000000000000e+00
ITEM: ATOMS id type xs ys zs
1 1 0.498876 0.5 0.335414
2 2 0.592467 0.5 0.298597
3 2 0.525366 0.5 0.432523
4 1 0.498876 0.5 0.964586
5 2 0.592467 0.5 0.00140287
6 2 0.525366 0.5 0.867477
ITEM: TIMESTEP
500
ITEM: NUMBER OF ATOMS
6
ITEM: BOX BOUNDS pp pp pp
-5.0000000000000000e+00 5.0000000000000000e+00
-5.0000000000000000e+00 5.0000000000000000e+00
-5.0000000000000000e+00 5.0000000000000000e+00
ITEM: ATOMS id type xs ys zs
1 1 0.497957 0.5 0.390073
2 2 0.574142 0.5 0.31801
3 2 0.55828 0.5 0.476164
4 1 0.497957 0.5 0.909927
5 2 0.574142 0.5 0.98199
6 2 0.55828 0.5 0.823836
ITEM: TIMESTEP
600
ITEM: NUMBER OF ATOMS
6
ITEM: BOX BOUNDS pp pp pp
-5.0000000000000000e+00 5.0000000000000000e+00
-5.0000000000000000e+00 5.0000000000000000e+00
-5.0000000000000000e+00 5.0000000000000000e+00
ITEM: ATOMS id type xs ys zs
1 1 0.499474 0.5 0.44141
2 2 0.530497 0.5 0.347665
3 2 0.57785 0.5 0.502071
4 1 0.499474 0.5 0.85859
5 2 0.530493 0.5 0.952336
6 2 0.577852 0.5 0.797932
ITEM: TIMESTEP
700
ITEM: NUMBER OF ATOMS
6
ITEM: BOX BOUNDS pp pp pp
-5.0000000000000000e+00 5.0000000000000000e+00
-5.0000000000000000e+00 5.0000000000000000e+00
-5.0000000000000000e+00 5.0000000000000000e+00
ITEM: ATOMS id type xs ys zs
1 1 0.500746 0.500001 0.465517
2 2 0.49899 0.499996 0.364258
3 2 0.589021 0.499992 0.515501
4 1 0.500773 0.499999 0.834465
5 2 0.498636 0.500004 0.935717
6 2 0.589235 0.500008 0.784813
ITEM: TIMESTEP
800
ITEM: NUMBER OF ATOMS
6
ITEM: BOX BOUNDS pp pp pp
-5.0000000000000000e+00 5.0000000000000000e+00
-5.0000000000000000e+00 5.0000000000000000e+00
-5.0000000000000000e+00 5.0000000000000000e+00
ITEM: ATOMS id type xs ys zs
1 1 0.498536 0.500094 0.450437
2 2 0.542115 0.499409 0.361428
3 2 0.566712 0.498871 0.523256
4 1 0.500908 0.49991 0.847347
5 2 0.509672 0.500501 0.946431
6 2 0.590331 0.501155 0.804043
ITEM: TIMESTEP
900
ITEM: NUMBER OF ATOMS
6
ITEM: BOX BOUNDS pp pp pp
-5.0000000000000000e+00 5.0000000000000000e+00
-5.0000000000000000e+00 5.0000000000000000e+00
-5.0000000000000000e+00 5.0000000000000000e+00
ITEM: ATOMS id type xs ys zs
1 1 0.502962 0.499314 0.423469
2 2 0.477215 0.501783 0.52302
3 2 0.410106 0.507462 0.380456
4 1 0.520295 0.500409 0.86838
5 2 0.418727 0.493274 0.854744
6 2 0.524806 0.501874 0.971157
ITEM: TIMESTEP
1000
ITEM: NUMBER OF ATOMS
6
ITEM: BOX BOUNDS pp pp pp
-5.0000000000000000e+00 5.0000000000000000e+00
-5.0000000000000000e+00 5.0000000000000000e+00
-5.0000000000000000e+00 5.0000000000000000e+00
ITEM: ATOMS id type xs ys zs
1 1 0.489463 0.496811 0.410858
2 2 0.538134 0.521562 0.493755
3 2 0.496007 0.569701 0.34345
4 1 0.515316 0.503114 0.888879
5 2 0.485571 0.423018 0.837841
6 2 0.604429 0.486908 0.929133
ITEM: TIMESTEP
1100
ITEM: NUMBER OF ATOMS
6
ITEM: BOX BOUNDS pp pp pp
-5.0000000000000000e+00 5.0000000000000000e+00
-5.0000000000000000e+00 5.0000000000000000e+00
-5.0000000000000000e+00 5.0000000000000000e+00
ITEM: ATOMS id type xs ys zs
1 1 0.492754 0.509379 0.402259
2 2 0.550346 0.455461 0.33915
3 2 0.392126 0.499514 0.393008
4 1 0.525328 0.491235 0.904234
5 2 0.429928 0.456556 0.908683
6 2 0.540601 0.578723 0.856096
ITEM: TIMESTEP
1200
ITEM: NUMBER OF ATOMS
6
ITEM: BOX BOUNDS pp pp pp
-5.0000000000000000e+00 5.0000000000000000e+00
-5.0000000000000000e+00 5.0000000000000000e+00
-5.0000000000000000e+00 5.0000000000000000e+00
ITEM: ATOMS id type xs ys zs
1 1 0.489127 0.512806 0.389158
2 2 0.508475 0.552134 0.299797
3 2 0.521676 0.418876 0.380847
4 1 0.519747 0.491504 0.923047
5 2 0.438307 0.498107 0.865904
6 2 0.590692 0.462476 0.859724
ITEM: TIMESTEP
1300
ITEM: NUMBER OF ATOMS
6
ITEM: BOX BOUNDS pp pp pp
-5.0000000000000000e+00 5.0000000000000000e+00
-5.0000000000000000e+00 5.0000000000000000e+00
-5.0000000000000000e+00 5.0000000000000000e+00
ITEM: ATOMS id type xs ys zs
1 1 0.500763 0.510663 0.366321
2 2 0.410302 0.5135 0.413173
3 2 0.483412 0.518016 0.265828
4 1 0.514695 0.491811 0.942508
5 2 0.547517 0.537716 0.857433
6 2 0.513415 0.391513 0.92343
ITEM: TIMESTEP
1400
ITEM: NUMBER OF ATOMS
6
ITEM: BOX BOUNDS pp pp pp
-5.0000000000000000e+00 5.0000000000000000e+00
-5.0000000000000000e+00 5.0000000000000000e+00
-5.0000000000000000e+00 5.0000000000000000e+00
ITEM: ATOMS id type xs ys zs
1 1 0.496682 0.512218 0.33046
2 2 0.486003 0.425791 0.282599
3 2 0.532757 0.586722 0.277522
4 1 0.513407 0.485244 0.980042
5 2 0.586338 0.545941 0.953548
6 2 0.434772 0.481826 0.919649
ITEM: TIMESTEP
1500
ITEM: NUMBER OF ATOMS
6
ITEM: BOX BOUNDS pp pp pp
-5.0000000000000000e+00 5.0000000000000000e+00
-5.0000000000000000e+00 5.0000000000000000e+00
-5.0000000000000000e+00 5.0000000000000000e+00
ITEM: ATOMS id type xs ys zs
1 1 0.50052 0.501407 0.283803
2 2 0.533345 0.513531 0.188856
3 2 0.470991 0.592497 0.314824
4 1 0.512462 0.499326 0.0198492
5 2 0.568304 0.418959 0.0439438
6 2 0.421319 0.463386 0.994415
ITEM: TIMESTEP
1600
ITEM: NUMBER OF ATOMS
6
ITEM: BOX BOUNDS pp pp pp
-5.0000000000000000e+00 5.0000000000000000e+00
-5.0000000000000000e+00 5.0000000000000000e+00
-5.0000000000000000e+00 5.0000000000000000e+00
ITEM: ATOMS id type xs ys zs
1 1 0.504417 0.510628 0.323153
2 2 0.523505 0.444753 0.249161
3 2 0.422997 0.564302 0.293293
4 1 0.50551 0.488082 0.987074
5 2 0.586282 0.434811 0.956598
6 2 0.50966 0.576607 0.938615
ITEM: TIMESTEP
1700
ITEM: NUMBER OF ATOMS
6
ITEM: BOX BOUNDS pp pp pp
-5.0000000000000000e+00 5.0000000000000000e+00
-5.0000000000000000e+00 5.0000000000000000e+00
-5.0000000000000000e+00 5.0000000000000000e+00
ITEM: ATOMS id type xs ys zs
1 1 0.501728 0.507985 0.30438
2 2 0.496463 0.480505 0.209145
3 2 0.44063 0.580827 0.330412
4 1 0.514769 0.490575 0.00510983
5 2 0.509991 0.398754 0.967642
6 2 0.491067 0.562767 0.942182
ITEM: TIMESTEP
1800
ITEM: NUMBER OF ATOMS
6
ITEM: BOX BOUNDS pp pp pp
-5.0000000000000000e+00 5.0000000000000000e+00
-5.0000000000000000e+00 5.0000000000000000e+00
-5.0000000000000000e+00 5.0000000000000000e+00
ITEM: ATOMS id type xs ys zs
1 1 0.500447 0.510015 0.303908
2 2 0.491266 0.524238 0.203093
3 2 0.4168 0.546373 0.345272
4 1 0.512274 0.491369 0.0034184
5 2 0.553024 0.402074 0.0293882
6 2 0.537006 0.505348 0.905969
ITEM: TIMESTEP
1900
ITEM: NUMBER OF ATOMS
6
ITEM: BOX BOUNDS pp pp pp
-5.0000000000000000e+00 5.0000000000000000e+00
-5.0000000000000000e+00 5.0000000000000000e+00
-5.0000000000000000e+00 5.0000000000000000e+00
ITEM: ATOMS id type xs ys zs
1 1 0.492241 0.522824 0.306305
2 2 0.56322 0.493342 0.241202
3 2 0.403646 0.488693 0.271656
4 1 0.517909 0.476501 0.00381743
5 2 0.572503 0.453622 0.923307
6 2 0.499538 0.575052 0.00317181
ITEM: TIMESTEP
2000
ITEM: NUMBER OF ATOMS
6
ITEM: BOX BOUNDS pp pp pp
-5.0000000000000000e+00 5.0000000000000000e+00
-5.0000000000000000e+00 5.0000000000000000e+00
-5.0000000000000000e+00 5.0000000000000000e+00
ITEM: ATOMS id type xs ys zs
1 1 0.486043 0.520281 0.292094
2 2 0.512748 0.545217 0.200422
3 2 0.428507 0.439158 0.297423
4 1 0.523431 0.484171 0.0176263
5 2 0.538016 0.391199 0.984292
6 2 0.570357 0.553769 0.963587
ITEM: TIMESTEP
2100
ITEM: NUMBER OF ATOMS
6
ITEM: BOX BOUNDS pp pp pp
-5.0000000000000000e+00 5.0000000000000000e+00
-5.0000000000000000e+00 5.0000000000000000e+00
-5.0000000000000000e+00 5.0000000000000000e+00
ITEM: ATOMS id type xs ys zs
1 1 0.47841 0.522002 0.300977
2 2 0.530107 0.528421 0.213284
3 2 0.417115 0.442584 0.291857
4 1 0.533289 0.480096 0.011013
5 2 0.531357 0.42105 0.928808
6 2 0.53573 0.574655 0.975741
ITEM: TIMESTEP
2200
ITEM: NUMBER OF ATOMS
6
ITEM: BOX BOUNDS pp pp pp
-5.0000000000000000e+00 5.0000000000000000e+00
-5.0000000000000000e+00 5.0000000000000000e+00
-5.0000000000000000e+00 5.0000000000000000e+00
ITEM: ATOMS id type xs ys zs
1 1 0.479318 0.512557 0.291589
2 2 0.504992 0.502188 0.193382
3 2 0.382349 0.491671 0.298936
4 1 0.531809 0.487655 0.0181179
5 2 0.597129 0.424419 0.976869
6 2 0.53893 0.578354 0.976742
ITEM: TIMESTEP
2300
ITEM: NUMBER OF ATOMS
6
ITEM: BOX BOUNDS pp pp pp
-5.0000000000000000e+00 5.0000000000000000e+00
-5.0000000000000000e+00 5.0000000000000000e+00
-5.0000000000000000e+00 5.0000000000000000e+00
ITEM: ATOMS id type xs ys zs
1 1 0.47415 0.501881 0.293971
2 2 0.53064 0.514892 0.213362
3 2 0.378541 0.526269 0.281212
4 1 0.537776 0.500255 0.0158104
5 2 0.539791 0.401127 0.0290312
6 2 0.56174 0.523804 0.921138
ITEM: TIMESTEP
2400
ITEM: NUMBER OF ATOMS
6
ITEM: BOX BOUNDS pp pp pp
-5.0000000000000000e+00 5.0000000000000000e+00
-5.0000000000000000e+00 5.0000000000000000e+00
-5.0000000000000000e+00 5.0000000000000000e+00
ITEM: ATOMS id type xs ys zs
1 1 0.474073 0.504188 0.292634
2 2 0.48576 0.473844 0.196482
3 2 0.378009 0.537487 0.301121
4 1 0.539733 0.490968 0.0166287
5 2 0.540713 0.48342 0.916323
6 2 0.576381 0.582131 0.0390528
ITEM: TIMESTEP
2500
ITEM: NUMBER OF ATOMS
6
ITEM: BOX BOUNDS pp pp pp
-5.0000000000000000e+00 5.0000000000000000e+00
-5.0000000000000000e+00 5.0000000000000000e+00
-5.0000000000000000e+00 5.0000000000000000e+00
ITEM: ATOMS id type xs ys zs
1 1 0.47023 0.501466 0.28592
2 2 0.497408 0.49997 0.188188
3 2 0.380508 0.459037 0.292941
4 1 0.543898 0.504421 0.0243282
5 2 0.467528 0.457618 0.979695
6 2 0.630314 0.489925 0.976523
ITEM: TIMESTEP
2600
ITEM: NUMBER OF ATOMS
6
ITEM: BOX BOUNDS pp pp pp
-5.0000000000000000e+00 5.0000000000000000e+00
-5.0000000000000000e+00 5.0000000000000000e+00
-5.0000000000000000e+00 5.0000000000000000e+00
ITEM: ATOMS id type xs ys zs
1 1 0.465057 0.49961 0.292118
2 2 0.485339 0.499567 0.193781
3 2 0.445686 0.410321 0.329405
4 1 0.541532 0.502671 0.0152607
5 2 0.523713 0.553298 0.930675
6 2 0.640685 0.500621 0.0290177
ITEM: TIMESTEP
2700
ITEM: NUMBER OF ATOMS
6
ITEM: BOX BOUNDS pp pp pp
-5.0000000000000000e+00 5.0000000000000000e+00
-5.0000000000000000e+00 5.0000000000000000e+00
-5.0000000000000000e+00 5.0000000000000000e+00
ITEM: ATOMS id type xs ys zs
1 1 0.463603 0.494743 0.286554
2 2 0.498105 0.504843 0.191297
3 2 0.44475 0.395748 0.299443
4 1 0.546401 0.50733 0.0238024
5 2 0.469566 0.552755 0.978278
6 2 0.628789 0.513744 0.966608
ITEM: TIMESTEP
2800
ITEM: NUMBER OF ATOMS
6
ITEM: BOX BOUNDS pp pp pp
-5.0000000000000000e+00 5.0000000000000000e+00
-5.0000000000000000e+00 5.0000000000000000e+00
-5.0000000000000000e+00 5.0000000000000000e+00
ITEM: ATOMS id type xs ys zs
1 1 0.466827 0.485308 0.289174
2 2 0.498143 0.532261 0.206326
3 2 0.43211 0.395022 0.26239
4 1 0.542579 0.515941 0.0229951
5 2 0.496677 0.577498 0.958431
6 2 0.623788 0.475401 0.979707
ITEM: TIMESTEP
2900
ITEM: NUMBER OF ATOMS
6
ITEM: BOX BOUNDS pp pp pp
-5.0000000000000000e+00 5.0000000000000000e+00
-5.0000000000000000e+00 5.0000000000000000e+00
-5.0000000000000000e+00 5.0000000000000000e+00
ITEM: ATOMS id type xs ys zs
1 1 0.472876 0.477688 0.288343
2 2 0.511813 0.503269 0.199074
3 2 0.38776 0.427892 0.281594
4 1 0.537305 0.520232 0.0213145
5 2 0.513461 0.609256 0.982653
6 2 0.625367 0.492606 0.983396
ITEM: TIMESTEP
3000
ITEM: NUMBER OF ATOMS
6
ITEM: BOX BOUNDS pp pp pp
-5.0000000000000000e+00 5.0000000000000000e+00
-5.0000000000000000e+00 5.0000000000000000e+00
-5.0000000000000000e+00 5.0000000000000000e+00
ITEM: ATOMS id type xs ys zs
1 1 0.478172 0.469749 0.291756
2 2 0.495619 0.504757 0.197563
3 2 0.38075 0.444042 0.294491
4 1 0.53552 0.528678 0.0192599
5 2 0.515527 0.611961 0.967113
6 2 0.590796 0.464211 0.965987
ITEM: TIMESTEP
3100
ITEM: NUMBER OF ATOMS
6
ITEM: BOX BOUNDS pp pp pp
-5.0000000000000000e+00 5.0000000000000000e+00
-5.0000000000000000e+00 5.0000000000000000e+00
-5.0000000000000000e+00 5.0000000000000000e+00
ITEM: ATOMS id type xs ys zs
1 1 0.486094 0.469296 0.284535
2 2 0.494764 0.50126 0.189608
3 2 0.392247 0.436495 0.299815
4 1 0.529873 0.530385 0.0266188
5 2 0.519258 0.613834 0.971342
6 2 0.540304 0.453482 0.962195
ITEM: TIMESTEP
3200
ITEM: NUMBER OF ATOMS
6
ITEM: BOX BOUNDS pp pp pp
-5.0000000000000000e+00 5.0000000000000000e+00
-5.0000000000000000e+00 5.0000000000000000e+00
-5.0000000000000000e+00 5.0000000000000000e+00
ITEM: ATOMS id type xs ys zs
1 1 0.49118 0.468995 0.292772
2 2 0.491862 0.476036 0.192746
3 2 0.404176 0.436706 0.328271
4 1 0.521388 0.529024 0.0148592
5 2 0.536225 0.627081 0.0223266
6 2 0.568267 0.49161 0.935536
ITEM: TIMESTEP
3300
ITEM: NUMBER OF ATOMS
6
ITEM: BOX BOUNDS pp pp pp
-5.0000000000000000e+00 5.0000000000000000e+00
-5.0000000000000000e+00 5.0000000000000000e+00
-5.0000000000000000e+00 5.0000000000000000e+00
ITEM: ATOMS id type xs ys zs
1 1 0.495873 0.46808 0.294689
2 2 0.524314 0.506813 0.2049
3 2 0.423623 0.402093 0.274831
4 1 0.519066 0.531944 0.017642
5 2 0.536215 0.621274 0.974372
6 2 0.478732 0.469432 0.95018
ITEM: TIMESTEP
3400
ITEM: NUMBER OF ATOMS
6
ITEM: BOX BOUNDS pp pp pp
-5.0000000000000000e+00 5.0000000000000000e+00
-5.0000000000000000e+00 5.0000000000000000e+00
-5.0000000000000000e+00 5.0000000000000000e+00
ITEM: ATOMS id type xs ys zs
1 1 0.502274 0.471851 0.285308
2 2 0.503052 0.482896 0.184962
3 2 0.432197 0.405216 0.312471
4 1 0.508678 0.528133 0.0229727
5 2 0.585266 0.588321 0.0485154
6 2 0.50565 0.523823 0.922625
ITEM: TIMESTEP
3500
ITEM: NUMBER OF ATOMS
6
ITEM: BOX BOUNDS pp pp pp
-5.0000000000000000e+00 5.0000000000000000e+00
-5.0000000000000000e+00 5.0000000000000000e+00
-5.0000000000000000e+00 5.0000000000000000e+00
ITEM: ATOMS id type xs ys zs
1 1 0.500159 0.465201 0.300456
2 2 0.517125 0.492728 0.20608
3 2 0.429109 0.395103 0.305815
4 1 0.514656 0.537659 0.0106799
5 2 0.585771 0.563194 0.946064
6 2 0.432845 0.503581 0.965285
ITEM: TIMESTEP
3600
ITEM: NUMBER OF ATOMS
6
ITEM: BOX BOUNDS pp pp pp
-5.0000000000000000e+00 5.0000000000000000e+00
-5.0000000000000000e+00 5.0000000000000000e+00
-5.0000000000000000e+00 5.0000000000000000e+00
ITEM: ATOMS id type xs ys zs
1 1 0.500755 0.47261 0.284653
2 2 0.496348 0.493904 0.1852
3 2 0.489658 0.373803 0.292513
4 1 0.508198 0.526914 0.0239968
5 2 0.606434 0.549829 0.0270164
6 2 0.465458 0.590028 0.957986
ITEM: TIMESTEP
3700
ITEM: NUMBER OF ATOMS
6
ITEM: BOX BOUNDS pp pp pp
-5.0000000000000000e+00 5.0000000000000000e+00
-5.0000000000000000e+00 5.0000000000000000e+00
-5.0000000000000000e+00 5.0000000000000000e+00
ITEM: ATOMS id type xs ys zs
1 1 0.495467 0.471033 0.295698
2 2 0.513616 0.519833 0.208744
3 2 0.497768 0.371792 0.282279
4 1 0.516747 0.530648 0.0158429
5 2 0.574516 0.547847 0.935734
6 2 0.420232 0.533857 0.990061
ITEM: TIMESTEP
3800
ITEM: NUMBER OF ATOMS
6
ITEM: BOX BOUNDS pp pp pp
-5.0000000000000000e+00 5.0000000000000000e+00
-5.0000000000000000e+00 5.0000000000000000e+00
-5.0000000000000000e+00 5.0000000000000000e+00
ITEM: ATOMS id type xs ys zs
1 1 0.495996 0.474355 0.29412
2 2 0.489278 0.496877 0.19704
3 2 0.547049 0.389198 0.307101
4 1 0.511438 0.526515 0.0162173
5 2 0.603493 0.545671 0.982018
6 2 0.442186 0.554446 0.949766
ITEM: TIMESTEP
3900
ITEM: NUMBER OF ATOMS
6
ITEM: BOX BOUNDS pp pp pp
-5.0000000000000000e+00 5.0000000000000000e+00
-5.0000000000000000e+00 5.0000000000000000e+00
-5.0000000000000000e+00 5.0000000000000000e+00
ITEM: ATOMS id type xs ys zs
1 1 0.497125 0.479692 0.287579
2 2 0.507784 0.482004 0.186929
3 2 0.527289 0.389297 0.317282
4 1 0.513625 0.521806 0.0218928
5 2 0.574552 0.569307 0.95755
6 2 0.419736 0.535619 0.987897
ITEM: TIMESTEP
4000
ITEM: NUMBER OF ATOMS
6
ITEM: BOX BOUNDS pp pp pp
-5.0000000000000000e+00 5.0000000000000000e+00
-5.0000000000000000e+00 5.0000000000000000e+00
-5.0000000000000000e+00 5.0000000000000000e+00
ITEM: ATOMS id type xs ys zs
1 1 0.50327 0.481621 0.296867
2 2 0.49739 0.514301 0.20067
3 2 0.508565 0.381975 0.30142
4 1 0.507118 0.523286 0.0143312
5 2 0.596645 0.515524 0.970975
6 2 0.43252 0.510304 0.949193
ITEM: TIMESTEP
4100
ITEM: NUMBER OF ATOMS
6
ITEM: BOX BOUNDS pp pp pp
-5.0000000000000000e+00 5.0000000000000000e+00
-5.0000000000000000e+00 5.0000000000000000e+00
-5.0000000000000000e+00 5.0000000000000000e+00
ITEM: ATOMS id type xs ys zs
1 1 0.50986 0.486061 0.28992
2 2 0.505766 0.507182 0.191891
3 2 0.459386 0.401717 0.308721
4 1 0.503356 0.512582 0.0187895
5 2 0.593142 0.545957 0.987812
6 2 0.431937 0.566691 0.973337
ITEM: TIMESTEP
4200
ITEM: NUMBER OF ATOMS
6
ITEM: BOX BOUNDS pp pp pp
-5.0000000000000000e+00 5.0000000000000000e+00
-5.0000000000000000e+00 5.0000000000000000e+00
-5.0000000000000000e+00 5.0000000000000000e+00
ITEM: ATOMS id type xs ys zs
1 1 0.513278 0.485672 0.295479
2 2 0.516882 0.515054 0.19948
3 2 0.432664 0.426787 0.304009
4 1 0.501552 0.514454 0.0157653
5 2 0.587931 0.518766 0.96528
6 2 0.427131 0.537396 0.952759
ITEM: TIMESTEP
4300
ITEM: NUMBER OF ATOMS
6
ITEM: BOX BOUNDS pp pp pp
-5.0000000000000000e+00 5.0000000000000000e+00
-5.0000000000000000e+00 5.0000000000000000e+00
-5.0000000000000000e+00 5.0000000000000000e+00
ITEM: ATOMS id type xs ys zs
1 1 0.510825 0.489395 0.291522
2 2 0.49523 0.50519 0.192159
3 2 0.478871 0.399804 0.321054
4 1 0.501239 0.515226 0.018373
5 2 0.593997 0.492291 0.98956
6 2 0.440422 0.529361 0.940169
ITEM: TIMESTEP
4400
ITEM: NUMBER OF ATOMS
6
ITEM: BOX BOUNDS pp pp pp
-5.0000000000000000e+00 5.0000000000000000e+00
-5.0000000000000000e+00 5.0000000000000000e+00
-5.0000000000000000e+00 5.0000000000000000e+00
ITEM: ATOMS id type xs ys zs
1 1 0.502065 0.490271 0.291344
2 2 0.514174 0.482005 0.191395
3 2 0.522281 0.402095 0.334084
4 1 0.509323 0.51008 0.0158105
5 2 0.562458 0.55273 0.941463
6 2 0.420345 0.557602 0.0194943
ITEM: TIMESTEP
4500
ITEM: NUMBER OF ATOMS
6
ITEM: BOX BOUNDS pp pp pp
-5.0000000000000000e+00 5.0000000000000000e+00
-5.0000000000000000e+00 5.0000000000000000e+00
-5.0000000000000000e+00 5.0000000000000000e+00
ITEM: ATOMS id type xs ys zs
1 1 0.498951 0.480478 0.297049
2 2 0.48823 0.503897 0.200267
3 2 0.595594 0.455618 0.31009
4 1 0.508687 0.522546 0.0130994
5 2 0.559723 0.444554 0.97761
6 2 0.43522 0.547944 0.950961
ITEM: TIMESTEP
4600
ITEM: NUMBER OF ATOMS
6
ITEM: BOX BOUNDS pp pp pp
-5.0000000000000000e+00 5.0000000000000000e+00
-5.0000000000000000e+00 5.0000000000000000e+00
-5.0000000000000000e+00 5.0000000000000000e+00
ITEM: ATOMS id type xs ys zs
1 1 0.503551 0.476748 0.287144
2 2 0.507651 0.469249 0.186261
3 2 0.547622 0.558823 0.322065
4 1 0.50634 0.51639 0.0222872
5 2 0.477982 0.46635 0.940106
6 2 0.509756 0.614491 0.00186919
ITEM: TIMESTEP
4700
ITEM: NUMBER OF ATOMS
6
ITEM: BOX BOUNDS pp pp pp
-5.0000000000000000e+00 5.0000000000000000e+00
-5.0000000000000000e+00 5.0000000000000000e+00
-5.0000000000000000e+00 5.0000000000000000e+00
ITEM: ATOMS id type xs ys zs
1 1 0.510419 0.473467 0.290581
2 2 0.51964 0.514053 0.197636
3 2 0.522735 0.546654 0.357377
4 1 0.500015 0.524026 0.01621
5 2 0.437592 0.445847 0.00528784
6 2 0.554429 0.533239 0.931914
ITEM: TIMESTEP
4800
ITEM: NUMBER OF ATOMS
6
ITEM: BOX BOUNDS pp pp pp
-5.0000000000000000e+00 5.0000000000000000e+00
-5.0000000000000000e+00 5.0000000000000000e+00
-5.0000000000000000e+00 5.0000000000000000e+00
ITEM: ATOMS id type xs ys zs
1 1 0.52187 0.48211 0.29715
2 2 0.509341 0.473388 0.198004
3 2 0.508814 0.579278 0.319992
4 1 0.489408 0.511507 0.013112
5 2 0.421293 0.526719 0.942099
6 2 0.581538 0.521916 0.977034
ITEM: TIMESTEP
4900
ITEM: NUMBER OF ATOMS
6
ITEM: BOX BOUNDS pp pp pp
-5.0000000000000000e+00 5.0000000000000000e+00
-5.0000000000000000e+00 5.0000000000000000e+00
-5.0000000000000000e+00 5.0000000000000000e+00
ITEM: ATOMS id type xs ys zs
1 1 0.52496 0.496171 0.286993
2 2 0.521405 0.475113 0.189101
3 2 0.505564 0.591863 0.307872
4 1 0.48942 0.502454 0.0230368
5 2 0.404126 0.521349 0.972906
6 2 0.540671 0.433489 0.970934
ITEM: TIMESTEP
5000
ITEM: NUMBER OF ATOMS
6
ITEM: BOX BOUNDS pp pp pp
-5.0000000000000000e+00 5.0000000000000000e+00
-5.0000000000000000e+00 5.0000000000000000e+00
-5.0000000000000000e+00 5.0000000000000000e+00
ITEM: ATOMS id type xs ys zs
1 1 0.527583 0.514576 0.299961
2 2 0.490948 0.494266 0.207
3 2 0.588591 0.593427 0.29042
4 1 0.484204 0.484634 0.0112727
5 2 0.402359 0.514373 0.961757
6 2 0.531016 0.410476 0.962513
ITEM: TIMESTEP
5100
ITEM: NUMBER OF ATOMS
6
ITEM: BOX BOUNDS pp pp pp
-5.0000000000000000e+00 5.0000000000000000e+00
-5.0000000000000000e+00 5.0000000000000000e+00
-5.0000000000000000e+00 5.0000000000000000e+00
ITEM: ATOMS id type xs ys zs
1 1 0.526936 0.53702 0.286147
2 2 0.519928 0.507511 0.189583
3 2 0.623647 0.549052 0.307451
4 1 0.480575 0.464498 0.0244562
5 2 0.431127 0.531325 0.969332
6 2 0.506075 0.388024 0.965341
ITEM: TIMESTEP
5200
ITEM: NUMBER OF ATOMS
6
ITEM: BOX BOUNDS pp pp pp
-5.0000000000000000e+00 5.0000000000000000e+00
-5.0000000000000000e+00 5.0000000000000000e+00
-5.0000000000000000e+00 5.0000000000000000e+00
ITEM: ATOMS id type xs ys zs
1 1 0.530144 0.552356 0.28164
2 2 0.516943 0.523995 0.18697
3 2 0.625281 0.547705 0.311917
4 1 0.476843 0.45175 0.0280408
5 2 0.491353 0.506109 0.944615
6 2 0.455534 0.357013 0.00285028
ITEM: TIMESTEP
5300
ITEM: NUMBER OF ATOMS
6
ITEM: BOX BOUNDS pp pp pp
-5.0000000000000000e+00 5.0000000000000000e+00
-5.0000000000000000e+00 5.0000000000000000e+00
-5.0000000000000000e+00 5.0000000000000000e+00
ITEM: ATOMS id type xs ys zs
1 1 0.534125 0.567329 0.282715
2 2 0.520157 0.537893 0.186013
3 2 0.63256 0.586951 0.292464
4 1 0.476956 0.435009 0.0261176
5 2 0.481736 0.442301 0.926198
6 2 0.389674 0.395744 0.0551286
ITEM: TIMESTEP
5400
ITEM: NUMBER OF ATOMS
6
ITEM: BOX BOUNDS pp pp pp
-5.0000000000000000e+00 5.0000000000000000e+00
-5.0000000000000000e+00 5.0000000000000000e+00
-5.0000000000000000e+00 5.0000000000000000e+00
ITEM: ATOMS id type xs ys zs
1 1 0.538369 0.569272 0.264539
2 2 0.49423 0.506763 0.198034
3 2 0.59141 0.636351 0.214311
4 1 0.472717 0.435727 0.0461516
5 2 0.548164 0.394262 0.994813
6 2 0.390252 0.383274 0.0231559
ITEM: TIMESTEP
5500
ITEM: NUMBER OF ATOMS
6
ITEM: BOX BOUNDS pp pp pp
-5.0000000000000000e+00 5.0000000000000000e+00
-5.0000000000000000e+00 5.0000000000000000e+00
-5.0000000000000000e+00 5.0000000000000000e+00
ITEM: ATOMS id type xs ys zs
1 1 0.550031 0.586713 0.267601
2 2 0.560232 0.515106 0.199155
3 2 0.476792 0.650849 0.246454
4 1 0.466698 0.416799 0.0424356
5 2 0.517847 0.343058 0.998665
6 2 0.379599 0.435241 0.996427
ITEM: TIMESTEP
5600
ITEM: NUMBER OF ATOMS
6
ITEM: BOX BOUNDS pp pp pp
-5.0000000000000000e+00 5.0000000000000000e+00
-5.0000000000000000e+00 5.0000000000000000e+00
-5.0000000000000000e+00 5.0000000000000000e+00
ITEM: ATOMS id type xs ys zs
1 1 0.551582 0.59157 0.248563
2 2 0.504526 0.54772 0.169859
3 2 0.492761 0.574054 0.329787
4 1 0.464593 0.417317 0.0548596
5 2 0.523386 0.339725 0.0799937
6 2 0.422592 0.397446 0.966037
ITEM: TIMESTEP
5700
ITEM: NUMBER OF ATOMS
6
ITEM: BOX BOUNDS pp pp pp
-5.0000000000000000e+00 5.0000000000000000e+00
-5.0000000000000000e+00 5.0000000000000000e+00
-5.0000000000000000e+00 5.0000000000000000e+00
ITEM: ATOMS id type xs ys zs
1 1 0.547 0.605855 0.239847
2 2 0.519057 0.523223 0.18889
3 2 0.53717 0.589651 0.337179
4 1 0.470024 0.400873 0.0629071
5 2 0.460404 0.312414 0.0157284
6 2 0.413172 0.467933 0.0144814
ITEM: TIMESTEP
5800
ITEM: NUMBER OF ATOMS
6
ITEM: BOX BOUNDS pp pp pp
-5.0000000000000000e+00 5.0000000000000000e+00
-5.0000000000000000e+00 5.0000000000000000e+00
-5.0000000000000000e+00 5.0000000000000000e+00
ITEM: ATOMS id type xs ys zs
1 1 0.544891 0.619878 0.233341
2 2 0.51452 0.549319 0.168589
3 2 0.611517 0.586304 0.298
4 1 0.466077 0.39139 0.0689069
5 2 0.496162 0.304085 0.105944
6 2 0.403717 0.381443 0.991792
ITEM: TIMESTEP
5900
ITEM: NUMBER OF ATOMS
6
ITEM: BOX BOUNDS pp pp pp
-5.0000000000000000e+00 5.0000000000000000e+00
-5.0000000000000000e+00 5.0000000000000000e+00
-5.0000000000000000e+00 5.0000000000000000e+00
ITEM: ATOMS id type xs ys zs
1 1 0.540147 0.617958 0.216366
2 2 0.503808 0.541409 0.160046
3 2 0.617137 0.657022 0.162419
4 1 0.471811 0.389 0.09347
5 2 0.436037 0.301236 0.1272
6 2 0.453221 0.389886 0.994212
ITEM: TIMESTEP
6000
ITEM: NUMBER OF ATOMS
6
ITEM: BOX BOUNDS pp pp pp
-5.0000000000000000e+00 5.0000000000000000e+00
-5.0000000000000000e+00 5.0000000000000000e+00
-5.0000000000000000e+00 5.0000000000000000e+00
ITEM: ATOMS id type xs ys zs
1 1 0.545105 0.639351 0.203481
2 2 0.512038 0.546644 0.185882
3 2 0.535951 0.695486 0.121039
4 1 0.468667 0.368762 0.100128
5 2 0.438831 0.33969 0.19161
6 2 0.494594 0.289413 0.0441808
ITEM: TIMESTEP
6100
ITEM: NUMBER OF ATOMS
6
ITEM: BOX BOUNDS pp pp pp
-5.0000000000000000e+00 5.0000000000000000e+00
-5.0000000000000000e+00 5.0000000000000000e+00
-5.0000000000000000e+00 5.0000000000000000e+00
ITEM: ATOMS id type xs ys zs
1 1 0.535916 0.635751 0.172181
2 2 0.523141 0.536275 0.184257
3 2 0.534331 0.662919 0.077362
4 1 0.478362 0.374015 0.133722
5 2 0.406139 0.329103 0.18563
6 2 0.509768 0.316706 0.0590501
ITEM: TIMESTEP
6200
ITEM: NUMBER OF ATOMS
6
ITEM: BOX BOUNDS pp pp pp
-5.0000000000000000e+00 5.0000000000000000e+00
-5.0000000000000000e+00 5.0000000000000000e+00
-5.0000000000000000e+00 5.0000000000000000e+00
ITEM: ATOMS id type xs ys zs
1 1 0.532604 0.651136 0.142755
2 2 0.53462 0.549241 0.149989
3 2 0.510398 0.66958 0.0460374
4 1 0.480077 0.359814 0.159546
5 2 0.399873 0.316702 0.203582
6 2 0.553837 0.290674 0.163875
ITEM: TIMESTEP
6300
ITEM: NUMBER OF ATOMS
6
ITEM: BOX BOUNDS pp pp pp
-5.0000000000000000e+00 5.0000000000000000e+00
-5.0000000000000000e+00 5.0000000000000000e+00
-5.0000000000000000e+00 5.0000000000000000e+00
ITEM: ATOMS id type xs ys zs
1 1 0.517981 0.638674 0.105815
2 2 0.528231 0.541373 0.12669
3 2 0.534687 0.655773 0.00817151
4 1 0.49317 0.371165 0.195732
5 2 0.400824 0.333143 0.196254
6 2 0.559269 0.31354 0.244337
ITEM: TIMESTEP
6400
ITEM: NUMBER OF ATOMS
6
ITEM: BOX BOUNDS pp pp pp
-5.0000000000000000e+00 5.0000000000000000e+00
-5.0000000000000000e+00 5.0000000000000000e+00
-5.0000000000000000e+00 5.0000000000000000e+00
ITEM: ATOMS id type xs ys zs
1 1 0.506532 0.628754 0.0730241
2 2 0.481533 0.544069 0.119832
3 2 0.585379 0.61858 0.0127489
4 1 0.498714 0.382373 0.227207
5 2 0.468958 0.297874 0.183554
6 2 0.580858 0.362869 0.280198
ITEM: TIMESTEP
6500
ITEM: NUMBER OF ATOMS
6
ITEM: BOX BOUNDS pp pp pp
-5.0000000000000000e+00 5.0000000000000000e+00
-5.0000000000000000e+00 5.0000000000000000e+00
-5.0000000000000000e+00 5.0000000000000000e+00
ITEM: ATOMS id type xs ys zs
1 1 0.490972 0.601511 0.0452511
2 2 0.534546 0.523991 0.0969246
3 2 0.568448 0.657239 0.014755
4 1 0.518039 0.402786 0.249843
5 2 0.478861 0.310826 0.23286
6 2 0.475126 0.43975 0.333333
ITEM: TIMESTEP
6600
ITEM: NUMBER OF ATOMS
6
ITEM: BOX BOUNDS pp pp pp
-5.0000000000000000e+00 5.0000000000000000e+00
-5.0000000000000000e+00 5.0000000000000000e+00
-5.0000000000000000e+00 5.0000000000000000e+00
ITEM: ATOMS id type xs ys zs
1 1 0.486562 0.572187 0.0239372
2 2 0.484937 0.531337 0.116325
3 2 0.560839 0.638419 0.0168657
4 1 0.517589 0.427684 0.266
5 2 0.613297 0.400251 0.270499
6 2 0.475046 0.432039 0.35603
ITEM: TIMESTEP
6700
ITEM: NUMBER OF ATOMS
6
ITEM: BOX BOUNDS pp pp pp
-5.0000000000000000e+00 5.0000000000000000e+00
-5.0000000000000000e+00 5.0000000000000000e+00
-5.0000000000000000e+00 5.0000000000000000e+00
ITEM: ATOMS id type xs ys zs
1 1 0.481274 0.532194 0.00392334
2 2 0.503461 0.500618 0.095253
3 2 0.456244 0.629319 0.997633
4 1 0.532774 0.467984 0.286522
5 2 0.569935 0.45193 0.377871
6 2 0.447397 0.415299 0.280898
ITEM: TIMESTEP
6800
ITEM: NUMBER OF ATOMS
6
ITEM: BOX BOUNDS pp pp pp
-5.0000000000000000e+00 5.0000000000000000e+00
-5.0000000000000000e+00 5.0000000000000000e+00
-5.0000000000000000e+00 5.0000000000000000e+00
ITEM: ATOMS id type xs ys zs
1 1 0.487076 0.497996 0.00563863
2 2 0.498706 0.482386 0.105537
3 2 0.397063 0.544739 0.998292
4 1 0.523395 0.498444 0.285888
5 2 0.556599 0.593509 0.291
6 2 0.581433 0.435869 0.339662
ITEM: TIMESTEP
6900
ITEM: NUMBER OF ATOMS
6
ITEM: BOX BOUNDS pp pp pp
-5.0000000000000000e+00 5.0000000000000000e+00
-5.0000000000000000e+00 5.0000000000000000e+00
-5.0000000000000000e+00 5.0000000000000000e+00
ITEM: ATOMS id type xs ys zs
1 1 0.482052 0.455329 0.000567862
2 2 0.487102 0.516349 0.0812058
3 2 0.465153 0.363155 0.0336162
4 1 0.530446 0.54584 0.2866
5 2 0.492719 0.624602 0.335317
6 2 0.556671 0.477343 0.353534
ITEM: TIMESTEP
7000
ITEM: NUMBER OF ATOMS
6
ITEM: BOX BOUNDS pp pp pp
-5.0000000000000000e+00 5.0000000000000000e+00
-5.0000000000000000e+00 5.0000000000000000e+00
-5.0000000000000000e+00 5.0000000000000000e+00
ITEM: ATOMS id type xs ys zs
1 1 0.482158 0.424154 0.0283033
2 2 0.507284 0.480863 0.10833
3 2 0.556068 0.37362 0.986621
4 1 0.524404 0.569723 0.266623
5 2 0.459153 0.640377 0.237891
6 2 0.573343 0.602333 0.347691
ITEM: TIMESTEP
7100
ITEM: NUMBER OF ATOMS
6
ITEM: BOX BOUNDS pp pp pp