6
Atoms. Timestep: 0
O 0 0 0
H 0 0 -1
H 1 0 0
O 0 0 3
H 0 0 4
H 1 0 3
6
Atoms. Timestep: 1
O 0.00892292 -4.42422e-22 -0.00902759
H -0.141159 8.80844e-22 -0.999574
H 0.999534 -6.53321e-22 0.141364
O 0.00892292 6.98741e-23 3.00903
H -0.141159 6.29899e-21 3.99957
H 0.999534 1.78605e-21 2.85864
6
Atoms. Timestep: 2
O 0.0203167 -6.73711e-22 -0.0206834
H -0.314046 -9.85414e-21 -0.992063
H 0.991579 9.66798e-21 0.314592
O 0.0203167 -1.42643e-22 3.02068
H -0.314046 7.63128e-21 3.99206
H 0.991579 4.83035e-21 2.68541
6
Atoms. Timestep: 3
O 0.0117092 6.09135e-22 -0.0124485
H -0.232096 -2.395e-20 -1.04772
H 1.04625 2.0094e-20 0.232645
O 0.0117092 -1.43459e-22 3.01245
H -0.232096 8.74087e-21 4.04772
H 1.04625 1.0809e-20 2.76736
6
Atoms. Timestep: 4
O -0.00170535 8.62818e-22 0.000417347
H -0.0439498 -3.38278e-20 -1.07347
H 1.07102 1.47057e-20 0.0443894
O -0.00170535 -8.72577e-22 2.99958
H -0.0439498 1.2636e-20 4.07347
H 1.07102 2.34685e-20 2.95561
6
Atoms. Timestep: 5
O 0.00179064 -7.38868e-23 -0.00388279
H -0.0538941 -3.22067e-20 -1.0285
H 1.02547 1.77847e-20 0.0546693
O 0.00179064 -1.49103e-21 3.00388
H -0.0538941 7.54084e-21 4.0285
H 1.02547 1.02388e-20 2.94533
6
Atoms. Timestep: 6
O 0.018901 -6.99777e-22 -0.0220054
H -0.247358 -4.46963e-20 -0.951011
H 0.947361 1.78249e-20 0.248867
O 0.018901 -1.56137e-21 3.02201
H -0.247358 5.96339e-22 3.95101
H 0.947361 1.9676e-20 2.75113
6
Atoms. Timestep: 7
O 0.0199355 -2.94135e-22 -0.0241999
H -0.264384 -5.38368e-20 -0.952525
H 0.947968 -2.72078e-23 0.266847
O 0.0199355 -9.53088e-22 3.0242
H -0.264384 -2.58902e-21 3.95252
H 0.947968 4.16096e-20 2.73315
6
Atoms. Timestep: 8
O 0.00246721 2.44705e-21 -0.00802702
H -0.0750531 -7.20132e-20 -1.04195
H 1.03589 -2.63534e-20 0.0788252
O 0.00246721 -2.12782e-21 3.00803
H -0.0750531 1.71654e-21 4.04195
H 1.03589 6.76448e-20 2.92117
6
Atoms. Timestep: 9
O -0.00325754 5.78927e-21 -0.0036641
H -0.0282734 -8.66603e-20 -1.08923
H 1.07998 -6.11049e-20 0.0331843
O -0.00325754 -4.502e-21 3.00366
H -0.0282734 1.20694e-22 4.08923
H 1.07998 1.13582e-19 2.96682
6
Atoms. Timestep: 10
O 0.00945577 7.12928e-21 -0.0178795
H -0.196182 -9.05327e-20 -1.0594
H 1.0461 -1.10673e-19 0.202159
O 0.00945577 -3.71474e-21 3.01788
H -0.196182 -4.22381e-20 4.0594
H 1.0461 1.70146e-19 2.79784
6
Atoms. Timestep: 11
O 0.0209187 9.30201e-21 -0.0311213
H -0.305036 -1.09619e-19 -0.988387
H 0.973014 -1.77468e-19 0.311707
O 0.0209187 -4.20605e-21 3.03112
H -0.305036 -6.66125e-20 3.98839
H 0.973014 2.33654e-19 2.68829
6
Atoms. Timestep: 12
O 0.0106641 2.11426e-20 -0.0230745
H -0.151502 -2.1683e-19 -0.996331
H 0.982242 -3.18608e-19 0.159886
O 0.0106641 -1.09412e-20 3.02307
H -0.151502 -3.40083e-20 3.99633
H 0.982242 3.31809e-19 2.84011
6
Atoms. Timestep: 13
O -0.000688793 3.4381e-20 -0.0139773
H 0.00947733 -3.13679e-19 -1.01605
H 1.00146 -4.61337e-19 0.000685094
O -0.000688793 -1.86414e-20 3.01398
H 0.00947733 3.7173e-21 4.01605
H 1.00146 4.35318e-19 2.99931
6
Atoms. Timestep: 14
O 0.00590609 3.18023e-20 -0.0225734
H -0.107555 -2.65784e-19 -1.03599
H 1.01381 -5.32895e-19 0.11978
O 0.00590609 -1.62647e-20 3.02257
H -0.107555 -8.2919e-20 4.03599
H 1.01381 5.52091e-19 2.88022
6
Atoms. Timestep: 15
O 0.0185078 2.31271e-20 -0.0372779
H -0.294134 -1.63106e-19 -1.03091
H 1.00038 -5.81564e-19 0.308198
O 0.0185078 -1.10275e-20 3.03728
H -0.294134 -2.04316e-19 4.03091
H 1.00038 6.5789e-19 2.6918
6
Atoms. Timestep: 16
O 0.0129705 3.53407e-20 -0.0345783
H -0.239883 -2.63336e-19 -1.06478
H 1.03401 -7.60963e-19 0.25688
O 0.0129705 -1.83026e-20 3.03458
H -0.239883 -1.52605e-19 4.06478
H 1.03401 7.9731e-19 2.74312
6
Atoms. Timestep: 17
O -0.00111339 5.96157e-20 -0.0237016
H -0.0378234 -4.97159e-19 -1.08235
H 1.0555 -9.9773e-19 0.0569243
O -0.00111339 -3.27284e-20 3.0237
H -0.0378234 2.90744e-20 4.08235
H 1.0555 9.44264e-19 2.94308
6
Atoms. Timestep: 18
O 4.55634e-05 6.07563e-20 -0.0276019
H -0.0136478 -5.07092e-19 -1.0437
H 1.01292 -1.05414e-18 0.0325605
O 4.55634e-05 -3.27136e-20 3.0276
H -0.0136478 4.84298e-20 4.0437
H 1.01292 1.00171e-18 2.96744
6
Atoms. Timestep: 19
O 0.0165874 3.71423e-20 -0.0464698
H -0.207594 -2.62302e-19 -0.987884
H 0.944318 -9.19139e-19 0.226045
O 0.0165874 -1.70789e-20 3.04647
H -0.207594 -1.58206e-19 3.98788
H 0.944318 9.91183e-19 2.77396
6
Atoms. Timestep: 20
O 0.0197499 3.79818e-20 -0.052781
H -0.257961 -2.26994e-19 -0.993219
H 0.94449 -9.56771e-19 0.2793
O 0.0197499 -1.91307e-20 3.05278
H -0.257961 -1.85597e-19 3.99322
H 0.94449 1.08068e-18 2.7207
6
Atoms. Timestep: 21
O 0.00222716 7.94071e-20 -0.0395399
H -0.0759338 -5.48734e-19 -1.08346
H 1.04058 -1.27436e-18 0.105079
O 0.00222716 -4.99047e-20 3.03954
H -0.0759338 9.49425e-20 4.08346
H 1.04058 1.33734e-18 2.89492
6
Atoms. Timestep: 22
O -0.00570702 1.03163e-19 -0.0353528
H 0.00856469 -7.0431e-19 -1.12664
H 1.08202 -1.45274e-18 0.0250577
O -0.00570702 -6.63306e-20 3.03535
H 0.00856469 2.42185e-19 4.12664
H 1.08202 1.49976e-18 2.97494
6
Atoms. Timestep: 23
O 0.00620859 8.30624e-20 -0.0500058
H -0.134343 -5.06607e-19 -1.09609
H 1.0358 -1.32958e-18 0.167683
O 0.00620859 -4.86335e-20 3.05001
H -0.134343 6.43831e-20 4.09609
H 1.0358 1.45507e-18 2.83232
6
Atoms. Timestep: 24
O 0.0203673 5.74456e-20 -0.06705
H -0.269622 -2.87077e-19 -1.01942
H 0.946352 -1.1778e-18 0.299822
O 0.0203673 -2.6287e-20 3.06705
H -0.269622 -1.08925e-19 4.01942
H 0.946352 1.351e-18 2.70018
6
Atoms. Timestep: 25
O 0.0113042 8.99778e-20 -0.0627363
H -0.140531 -5.79704e-19 -1.02663
H 0.961111 -1.43623e-18 0.174925
O 0.0113042 -5.20449e-20 3.06274
H -0.140531 1.8994e-19 4.02663
H 0.961111 1.54453e-18 2.82508
6
Atoms. Timestep: 26
O -0.0026049 1.36246e-19 -0.0539064
H 0.0369622 -9.85395e-19 -1.06122
H 1.00438 -1.79868e-18 0.00377909
O -0.0026049 -8.9932e-20 3.05391
H 0.0369622 5.93093e-19 4.06122
H 1.00438 1.81204e-18 2.99622
6
Atoms. Timestep: 27
O 0.0016659 1.26748e-19 -0.0617012
H -0.0508852 -8.80813e-19 -1.09871
H 1.02444 -1.83424e-18 0.0972158
O 0.0016659 -8.35453e-20 3.0617
H -0.0508852 4.7248e-19 4.09871
H 1.02444 1.87292e-18 2.90278
6
Atoms. Timestep: 28
O 0.0155592 8.96893e-20 -0.0785024
H -0.245099 -5.17473e-19 -1.09822
H 0.998143 -1.65618e-18 0.293475
O 0.0155592 -5.33629e-20 3.0785
H -0.245099 1.08541e-19 4.09822
H 0.998143 1.76609e-18 2.70652
6
Atoms. Timestep: 29
O 0.0134186 1.02935e-19 -0.081139
H -0.22055 -6.43063e-19 -1.10811
H 1.00757 -1.81259e-18 0.273297
O 0.0134186 -6.53817e-20 3.08114
H -0.22055 2.08483e-19 4.10811
H 1.00757 1.88725e-18 2.7267
6
Atoms. Timestep: 30
O -0.00126928 1.60632e-19 -0.0725917
H -0.0122251 -1.21229e-18 -1.11396
H 1.03237 -2.24795e-18 0.0695738
O -0.00126928 -1.15282e-19 3.07259
H -0.0122251 7.19801e-19 4.11396
H 1.03237 2.18706e-18 2.93043
6
Atoms. Timestep: 31
O -0.00266736 1.67787e-19 -0.0757688
H 0.0426634 -1.33738e-18 -1.08307
H 0.999673 -2.35724e-18 0.0131714
O -0.00266736 -1.23426e-19 3.07577
H 0.0426634 8.44615e-19 4.08307
H 0.999673 2.2217e-18 2.98683
6
Atoms. Timestep: 32
O 0.0130616 1.08941e-19 -0.0941956
H -0.146638 -8.0491e-19 -1.05553
H 0.939324 -2.06524e-18 0.200212
O 0.0130616 -7.58886e-20 3.0942
H -0.146638 3.76667e-19 4.05553
H 0.939324 1.99567e-18 2.79979
6
Atoms. Timestep: 33
O 0.0184994 9.25738e-20 -0.103924
H -0.228146 -6.31428e-19 -1.06679
H 0.934524 -2.06736e-18 0.286398
O 0.0184994 -6.33648e-20 3.10392
H -0.228146 2.1277e-19 4.06679
H 0.934524 2.00211e-18 2.7136
6
Atoms. Timestep: 34
O 0.00143499 1.7393e-19 -0.094294
H -0.0572483 -1.31344e-18 -1.14741
H 1.03447 -2.75624e-18 0.133083
O 0.00143499 -1.30662e-19 3.09429
H -0.0572483 7.91911e-19 4.14741
H 1.03447 2.52794e-18 2.86692
6
Atoms. Timestep: 35
O -0.00869686 2.25554e-19 -0.0904952
H 0.0628622 -1.75418e-18 -1.17899
H 1.07517 -3.19817e-18 0.0214239
O -0.00869686 -1.73912e-19 3.0905
H 0.0628622 1.16971e-18 4.17899
H 1.07517 2.87107e-18 2.97858
6
Atoms. Timestep: 36
O 0.00218625 1.77624e-19 -0.104649
H -0.0519658 -1.30719e-18 -1.14965
H 1.01727 -2.96174e-18 0.131807
O 0.00218625 -1.37954e-19 3.10465
H -0.0519658 7.98366e-19 4.14965
H 1.01727 2.6831e-18 2.86819
6
Atoms. Timestep: 37
O 0.0187911 1.02559e-19 -0.123927
H -0.211821 -6.43026e-19 -1.07878
H 0.913569 -2.50229e-18 0.280239
O 0.0187911 -8.0331e-20 3.12393
H -0.211821 2.46717e-19 4.07878
H 0.913569 2.32678e-18 2.71976
6
Atoms. Timestep: 38
O 0.0111341 1.52274e-19 -0.123173
H -0.111246 -1.06936e-18 -1.08549
H 0.934525 -2.91966e-18 0.186923
O 0.0111341 -1.23776e-19 3.12317
H -0.111246 6.19884e-19 4.08549
H 0.934525 2.64718e-18 2.81308
6
Atoms. Timestep: 39
O -0.00534505 2.50976e-19 -0.11504
H 0.0798748 -1.91242e-18 -1.12824
H 1.00496 -3.69014e-18 0.0111379
O -0.00534505 -2.07824e-19 3.11504
H 0.0798748 1.32673e-18 4.12824
H 1.00496 3.24496e-18 2.98886
6
Atoms. Timestep: 40
O -0.0034794 2.47201e-19 -0.121812
H 0.0259134 -1.74654e-18 -1.17688
H 1.02931 -3.84806e-18 0.0761983
O -0.0034794 -2.11497e-19 3.12181
H 0.0259134 1.17444e-18 4.17688
H 1.02931 3.3874e-18 2.9238
6
Atoms. Timestep: 41
O 0.0116825 1.71005e-19 -0.139593
H -0.169614 -8.96578e-19 -1.1827
H 0.98419 -3.46116e-18 0.271559
O 0.0116825 -1.55326e-19 3.13959
H -0.169614 4.47323e-19 4.1827
H 0.98419 3.12444e-18 2.72844
6
Atoms. Timestep: 42
O 0.0132976 1.73261e-19 -0.146808
H -0.177501 -8.72834e-19 -1.17112
H 0.966442 -3.55699e-18 0.280305
O 0.0132976 -1.64238e-19 3.14681
H -0.177501 4.48066e-19 4.17112
H 0.966442 3.22123e-18 2.71969
6
Atoms. Timestep: 43
O -0.00183371 2.82424e-19 -0.140753
H 0.0287995 -1.8791e-18 -1.16358
H 1.00031 -4.29905e-18 0.0809991
O -0.00183371 -2.62184e-19 3.14075
H 0.0287995 1.35131e-18 4.16358
H 1.00031 3.83091e-18 2.919
6
Atoms. Timestep: 44
O -0.00606848 3.23185e-19 -0.143093
H 0.110975 -2.23995e-18 -1.13978
H 0.985344 -4.57665e-18 -0.00271966
O -0.00606848 -3.01379e-19 3.14309
H 0.110975 1.68998e-18 4.13978
H 0.985344 4.06643e-18 3.00272
6
Atoms. Timestep: 45
O 0.00852181 2.37783e-19 -0.160181
H -0.0670581 -1.30306e-18 -1.14291
H 0.9318 -4.17903e-18 0.173196
O 0.00852181 -2.34379e-19 3.16018
H -0.0670581 8.70842e-19 4.14291
H 0.9318 3.76029e-18 2.8268
6
Atoms. Timestep: 46
O 0.0164011 2.00286e-19 -0.172425
H -0.17603 -7.88252e-19 -1.16279
H 0.915711 -4.11783e-18 0.287811
O 0.0164011 -2.07521e-19 3.17243
H -0.17603 4.14387e-19 4.16279
H 0.915711 3.73214e-18 2.71219
6
Atoms. Timestep: 47
O 0.000529664 3.44106e-19 -0.166764
H -0.0211875 -1.92468e-18 -1.22598
H 1.01278 -5.26013e-18 0.160333
O 0.000529664 -3.36431e-19 3.16676
H -0.0211875 1.41575e-18 4.22598
H 1.01278 4.71631e-18 2.83967
6
Atoms. Timestep: 48
O -0.0117134 4.6221e-19 -0.163636
H 0.12906 -2.93675e-18 -1.23913
H 1.05686 -6.12391e-18 0.0216514
O -0.0117134 -4.41565e-19 3.16364
H 0.12906 2.32173e-18 4.23913
H 1.05686 5.42171e-18 2.97835
6
Atoms. Timestep: 49
O -0.00223836 3.98324e-19 -0.176599
H 0.0435752 -2.28636e-18 -1.21153
H 0.991952 -5.78831e-18 0.0962296
O -0.00223836 -3.95824e-19 3.1766
H 0.0435752 1.77222e-18 4.21153
H 0.991952 5.14389e-18 2.90377
6
Atoms. Timestep: 50
O 0.0163612 2.57938e-19 -0.196554
H -0.136396 -9.33827e-19 -1.15768
H 0.876712 -4.92642e-18 0.254302
O 0.0163612 -2.83837e-19 3.19655
H -0.136396 5.83372e-19 4.15768
H 0.876712 4.41188e-18 2.7457
6
Atoms. Timestep: 51
O 0.0104542 3.38882e-19 -0.199019
H -0.0668529 -1.55072e-18 -1.16565
H 0.900923 -5.63001e-18 0.195604
O 0.0104542 -3.65204e-19 3.19902
H -0.0668529 1.13302e-18 4.16565
H 0.900923 5.01895e-18 2.8044
6
Atoms. Timestep: 52
O -0.00836412 5.4489e-19 -0.192152
H 0.134501 -3.31616e-18 -1.20892
H 0.998254 -7.21524e-18 0.0231403
O -0.00836412 -5.56045e-19 3.19215
H 0.134501 2.6993e-18 4.20892
H 0.998254 6.39548e-18 2.97686
6
Atoms. Timestep: 53
O -0.00900345 5.70057e-19 -0.197926
H 0.117329 -3.31375e-18 -1.25979
H 1.02557 -7.68832e-18 0.0577612
O -0.00900345 -5.85691e-19 3.19793
H 0.117329 2.68253e-18 4.25979
H 1.02557 6.8286e-18 2.94224
6
Atoms. Timestep: 54
O 0.00721362 4.18654e-19 -0.215637
H -0.0732593 -1.73126e-18 -1.27266
H 0.958765 -6.95235e-18 0.242665
O 0.00721362 -4.63539e-19 3.21564
H -0.0732593 1.25796e-18 4.27266
H 0.958765 6.22485e-18 2.75733
6
Atoms. Timestep: 55
O 0.0128232 3.83732e-19 -0.226333
H -0.115695 -1.38587e-18 -1.24631
H 0.912165 -6.84128e-18 0.275892
O 0.0128232 -4.44151e-19 3.22633
H -0.115695 9.79684e-19 4.24631
H 0.912165 6.13089e-18 2.72411
6
Atoms. Timestep: 56
O -0.00248572 5.96343e-19 -0.222836
H 0.0807411 -3.3869e-18 -1.22623
H 0.958712 -8.31639e-18 0.0890945
O -0.00248572 -6.43494e-19 3.22284
H 0.0807411 2.79701e-18 4.22623
H 0.958712 7.40735e-18 2.91091
6
Atoms. Timestep: 57
O -0.00979975 7.11849e-19 -0.224517
H 0.187003 -4.49463e-18 -1.20739
H 0.968539 -9.17673e-18 -0.0152426
O -0.00979975 -7.563e-19 3.22452
H 0.187003 3.78844e-18 4.20739
H 0.968539 8.12988e-18 3.01524
6
Atoms. Timestep: 58
O 0.00328022 5.63487e-19 -0.239779
H 0.0273659 -2.91318e-18 -1.23915
H 0.92057 -8.61938e-18 0.145654
O 0.00328022 -6.38764e-19 3.23978
H 0.0273659 2.37598e-18 4.23915
H 0.92057 7.6055e-18 2.85435
6
Atoms. Timestep: 59
O 0.013709 4.51333e-19 -0.2536
H -0.104224 -1.66339e-18 -1.27002
H 0.886634 -8.32804e-18 0.281909
O 0.013709 -5.52734e-19 3.2536
H -0.104224 1.24675e-18 4.27002
H 0.886634 7.31913e-18 2.71809
6
Atoms. Timestep: 60
O -0.000116319 6.93254e-19 -0.251908
H 0.0289155 -3.69423e-18 -1.31179
H 0.972931 -1.03525e-17 0.18194
O -0.000116319 -7.79202e-19 3.25191
H 0.0289155 3.03849e-18 4.31179
H 0.972931 9.07119e-18 2.81806
6
Atoms. Timestep: 61
O -0.014272 9.46559e-19 -0.24979
H 0.201219 -6.05502e-18 -1.30191
H 1.02531 -1.21845e-17 0.0225876
O -0.014272 -1.01237e-18 3.24979
H 0.201219 5.137e-18 4.30191
H 1.02531 1.06567e-17 2.97741
6
Atoms. Timestep: 62
O -0.00665941 8.52078e-19 -0.261236
H 0.144655 -5.21372e-18 -1.27561
H 0.961043 -1.16918e-17 0.0611077
O -0.00665941 -9.3858e-19 3.26124
H 0.144655 4.42227e-18 4.27561
H 0.961043 1.02307e-17 2.93889
6
Atoms. Timestep: 63
O 0.0132775 5.55125e-19 -0.280599
H -0.0483307 -2.43681e-18 -1.24766
H 0.837589 -9.88032e-18 0.222814
O 0.0132775 -6.85858e-19 3.2806
H -0.0483307 1.99602e-18 4.24766
H 0.837589 8.64761e-18 2.77719
6
Atoms. Timestep: 64
O 0.00951244 6.7635e-19 -0.285808
H -0.0104616 -3.31356e-18 -1.25984
H 0.85948 -1.10464e-17 0.199322
O 0.00951244 -8.09331e-19 3.28581
H -0.0104616 2.84106e-18 4.25984
H 0.85948 9.71945e-18 2.80068
6
Atoms. Timestep: 65
O -0.0111042 1.11913e-18 -0.280806
H 0.196494 -7.07606e-18 -1.29649
H 0.979753 -1.44548e-17 0.0375464
O -0.0111042 -1.22521e-18 3.28081
H 0.196494 6.28989e-18 4.29649
H 0.979753 1.28188e-17 2.96245
6
Atoms. Timestep: 66
O -0.0142963 1.22064e-18 -0.285828
H 0.216139 -7.67722e-18 -1.33971
H 1.01077 -1.56195e-17 0.0406459
O -0.0142963 -1.33302e-18 3.28583
H 0.216139 6.86555e-18 4.33971
H 1.01077 1.3856e-17 2.95935
6
Atoms. Timestep: 67
O 0.00255256 9.11954e-19 -0.302636
H 0.0361604 -4.6211e-18 -1.35903
H 0.923325 -1.39865e-17 0.206039
O 0.00255256 -1.07075e-18 3.30264
H 0.0361604 4.11356e-18 4.35903
H 0.923325 1.23359e-17 2.79396
6
Atoms. Timestep: 68
O 0.0121411 7.59965e-19 -0.315571
H -0.040908 -3.25737e-18 -1.32736
H 0.848204 -1.31477e-17 0.258181
O 0.0121411 -9.50226e-19 3.31557
H -0.040908 2.9054e-18 4.32736
H 0.848204 1.15329e-17 2.74182
6
Atoms. Timestep: 69
O -0.00299334 1.17677e-18 -0.314612
H 0.139305 -7.09416e-18 -1.29791
H 0.908205 -1.61503e-17 0.0913019
O -0.00299334 -1.34989e-18 3.31461
H 0.139305 6.39855e-18 4.29791
H 0.908205 1.42869e-17 2.9087
6
Atoms. Timestep: 70
O -0.0134927 1.48599e-18 -0.316041
H 0.26664 -9.89514e-18 -1.28107
H 0.947517 -1.84932e-17 -0.0256925
O -0.0134927 -1.65025e-18 3.31604
H 0.26664 8.94885e-18 4.28107
H 0.947517 1.64067e-17 3.02569
6
Atoms. Timestep: 71
O -0.0022723 1.25e-18 -0.329366
H 0.131661 -7.22e-18 -1.33559
H 0.904405 -1.76641e-17 0.116858
O -0.0022723 -1.45083e-18 3.32937
H 0.131661 6.57142e-18 4.33559
H 0.904405 1.55496e-17 2.88314
6
Atoms. Timestep: 72
O 0.0106855 9.7025e-19 -0.343868
H -0.0170264 -4.20026e-18 -1.37881
H 0.847427 -1.65127e-17 0.26615
O 0.0106855 -1.21002e-18 3.34387
H -0.0170264 3.87523e-18 4.37881
H 0.847427 1.44166e-17 2.73385
6
Atoms. Timestep: 73
O -0.000282153 1.36517e-18 -0.345787
H 0.0889343 -7.45693e-18 -1.39915
H 0.915544 -1.98119e-17 0.192138
O -0.000282153 -1.58462e-18 3.34579
H 0.0889343 6.85939e-18 4.39915
H 0.915544 1.74203e-17 2.80786
6
Atoms. Timestep: 74
O -0.0160492 1.90786e-18 -0.345002
H 0.274096 -1.25146e-17 -1.36474
H 0.980637 -2.3697e-17 0.0197789
O -0.0160492 -2.09574e-18 3.345
H 0.274096 1.14655e-17 4.36474
H 0.980637 2.10246e-17 2.98022
6
Atoms. Timestep: 75
O -0.0107412 1.80122e-18 -0.354943
H 0.244816 -1.16491e-17 -1.33883
H 0.925669 -2.32033e-17 0.0255029
O -0.0107412 -2.01388e-18 3.35494
H 0.244816 1.0717e-17 4.33883
H 0.925669 2.05317e-17 2.9745
6
Atoms. Timestep: 76
O 0.00975778 1.21066e-18 -0.372849
H 0.0475518 -6.08532e-18 -1.34191
H 0.797573 -1.96985e-17 0.186071
O 0.00975778 -1.48584e-18 3.37285
H 0.0475518 5.70053e-18 4.34191
H 0.797573 1.72047e-17 2.81393
6
Atoms. Timestep: 77
O 0.00847943 1.36666e-18 -0.380207
H 0.0549803 -6.98873e-18 -1.36176
H 0.810434 -2.15731e-17 0.195539
O 0.00847943 -1.64218e-18 3.38021
H 0.0549803 6.58386e-18 4.36176
H 0.810434 1.8854e-17 2.80446
6
Atoms. Timestep: 78
O -0.013118 2.27684e-18 -0.377536
H 0.261536 -1.46275e-17 -1.38624
H 0.946673 -2.87018e-17 0.0499696
O -0.013118 -2.49293e-18 3.37754
H 0.261536 1.3604e-17 4.38624
H 0.946673 2.54062e-17 2.95003
6
Atoms. Timestep: 79
O -0.0188106 2.57804e-18 -0.382177
H 0.314841 -1.68725e-17 -1.41279
H 0.983721 -3.15408e-17 0.0219559
O -0.0188106 -2.7827e-18 3.38218
H 0.314841 1.57304e-17 4.41279
H 0.983721 2.79624e-17 2.97804
6
Atoms. Timestep: 80
O -0.00191667 1.97713e-18 -0.397536
H 0.150034 -1.11211e-17 -1.43673
H 0.880387 -2.81177e-17 0.160827
O -0.00191667 -2.24752e-18 3.39754
H 0.150034 1.05555e-17 4.43673
H 0.880387 2.47042e-17 2.83917
6
Atoms. Timestep: 81
O 0.0113214 1.52779e-18 -0.411506
H 0.0411047 -7.18857e-18 -1.40995
H 0.779202 -2.53516e-17 0.226406
O 0.0113214 -1.85695e-18 3.41151
H 0.0411047 7.02743e-18 4.40995
H 0.779202 2.21311e-17 2.77359
6
Atoms. Timestep: 82
O -0.00322882 2.32194e-18 -0.412954
H 0.200807 -1.42881e-17 -1.3758
H 0.850441 -3.13074e-17 0.0854054
O -0.00322882 -2.61639e-18 3.41295
H 0.200807 1.35673e-17 4.3758
H 0.850441 2.77462e-17 2.91459
6
Atoms. Timestep: 83
O -0.0168133 3.08045e-18 -0.414643
H 0.346172 -2.09244e-17 -1.35768
H 0.920689 -3.71438e-17 -0.036168
O -0.0168133 -3.34141e-18 3.41464
H 0.346172 1.97048e-17 4.35768
H 0.920689 3.32374e-17 3.03617
6
Atoms. Timestep: 84
O -0.00771816 2.72677e-18 -0.426189
H 0.240098 -1.66969e-17 -1.42647
H 0.882405 -3.61462e-17 0.0851923
O -0.00771816 -3.03252e-18 3.42619
H 0.240098 1.59435e-17 4.42647
H 0.882405 3.21957e-17 2.91481
6
Atoms. Timestep: 85
O 0.00757231 2.05949e-18 -0.440582
H 0.0800178 -9.81742e-18 -1.48207
H 0.799794 -3.28803e-17 0.238107
O 0.00757231 -2.43201e-18 3.44058
H 0.0800178 9.74491e-18 4.48207
H 0.799794 2.90098e-17 2.76189
6
Atoms. Timestep: 86
O 7.93984e-05 2.63336e-18 -0.445462
H 0.154547 -1.44873e-17 -1.48436
H 0.844193 -3.77776e-17 0.186231
O 7.93984e-05 -2.9856e-18 3.44546
H 0.154547 1.41343e-17 4.48436
H 0.844193 3.3594e-17 2.81377
6
Atoms. Timestep: 87
O -0.0169299 3.76649e-18 -0.446249
H 0.343792 -2.48992e-17 -1.427
H 0.924919 -4.57935e-17 0.0092377
O -0.0169299 -4.06066e-18 3.44625
H 0.343792 2.37605e-17 4.427
H 0.924919 4.11934e-17 2.99076
6
Atoms. Timestep: 88
O -0.0142694 3.7265e-18 -0.454946
H 0.339525 -2.46607e-17 -1.40054
H 0.88696 -4.58652e-17 -0.0117175
O -0.0142694 -4.04295e-18 3.45495
H 0.339525 2.35827e-17 4.40054
H 0.88696 4.1234e-17 3.01172
6
Atoms. Timestep: 89
O 0.00602091 2.59814e-18 -0.470932
H 0.146943 -1.38852e-17 -1.43559
H 0.757492 -3.92347e-17 0.144175
O 0.00602091 -3.00716e-18 3.47093
H 0.146943 1.37468e-17 4.43559
H 0.757492 3.48117e-17 2.85583
6
Atoms. Timestep: 90
O 0.00745076 2.70583e-18 -0.479762
H 0.126752 -1.38261e-17 -1.46619
H 0.754989 -4.15446e-17 0.181737
O 0.00745076 -3.13209e-18 3.47976
H 0.126752 1.38686e-17 4.46619
H 0.754989 3.68713e-17 2.81826
6
Atoms. Timestep: 91
O -0.0141567 4.43826e-18 -0.479637
H 0.326098 -2.83105e-17 -1.47523
H 0.898598 -5.51738e-17 0.0552577
O -0.0141567 -4.78203e-18 3.47964
H 0.326098 2.74626e-17 4.47523
H 0.898598 4.97198e-17 2.94474
6
Atoms. Timestep: 92
O -0.0221825 5.18668e-18 -0.484296
H 0.407243 -3.44978e-17 -1.47841
H 0.944839 -6.14679e-17 -0.00153394
O -0.0221825 -5.50125e-18 3.4843
H 0.407243 3.32848e-17 4.47841
H 0.944839 5.55789e-17 3.00153
6
Atoms. Timestep: 93
O -0.00589387 4.09622e-18 -0.497958
H 0.260659 -2.43072e-17 -1.50448
H 0.832888 -5.4944e-17 0.107059
O -0.00589387 -4.49284e-18 3.49796
H 0.260659 2.39236e-17 4.50448
H 0.832888 4.91641e-17 2.89294
6
Atoms. Timestep: 94
O 0.0103795 3.0123e-18 -0.511934
H 0.12548 -1.47178e-17 -1.49177
H 0.709777 -4.79769e-17 0.181517
O 0.0103795 -3.48778e-18 3.51193
H 0.12548 1.50556e-17 4.49177
H 0.709777 4.24357e-17 2.81848
6
Atoms. Timestep: 95
O -0.00315835 4.45256e-18 -0.515542
H 0.262536 -2.71444e-17 -1.45804
H 0.787594 -5.90714e-17 0.0701219
O -0.00315835 -4.8499e-18 3.51554
H 0.262536 2.66271e-17 4.45804
H 0.787594 5.28861e-17 2.92988
6
Atoms. Timestep: 96
O -0.0195014 6.15674e-18 -0.517979
H 0.422579 -4.17238e-17 -1.43537
H 0.886947 -7.22063e-17 -0.0490479
O -0.0195014 -6.46293e-18 3.51798
H 0.422579 4.02575e-17 4.43537
H 0.886947 6.52842e-17 3.04905
6
Atoms. Timestep: 97
O -0.0126755 5.70596e-18 -0.528056
H 0.34701 -3.5827e-17 -1.50881
H 0.854175 -7.16697e-17 0.0488663
O -0.0126755 -6.05448e-18 3.52806
H 0.34701 3.50449e-17 4.50881
H 0.854175 6.4413e-17 2.95113
6
Atoms. Timestep: 98
O 0.00457394 4.25146e-18 -0.541705
H 0.180961 -2.14164e-17 -1.5755
H 0.746441 -6.38045e-17 0.19645
O 0.00457394 -4.70641e-18 3.54171
H 0.180961 2.18711e-17 4.5755
H 0.746441 5.66365e-17 2.80355
6
Atoms. Timestep: 99
O 0.00087683 4.94546e-18 -0.548737
H 0.221891 -2.70703e-17 -1.56547
H 0.764192 -7.00359e-17 0.161952
O 0.00087683 -5.37712e-18 3.54874
H 0.221891 2.71614e-17 4.56547
H 0.764192 6.2436e-17 2.83805
6
Atoms. Timestep: 100
O -0.0169815 7.19381e-18 -0.55122
H 0.408054 -4.76514e-17 -1.48915
H 0.861476 -8.60504e-17 -0.0113501
O -0.0169815 -7.50665e-18 3.55122
H 0.408054 4.61498e-17 4.48915
H 0.861476 7.77051e-17 3.01135
6
Atoms. Timestep: 101
O -0.0171536 7.44373e-18 -0.559063
H 0.426362 -5.00445e-17 -1.46136
H 0.8459 -8.85613e-17 -0.0512694
O -0.0171536 -7.76001e-18 3.55906
H 0.426362 4.83318e-17 4.46136
H 0.8459 8.00458e-17 3.05127
6
Atoms. Timestep: 102
O 0.00227081 5.40433e-18 -0.572991
H 0.246331 -3.02919e-17 -1.52565
H 0.717627 -7.69385e-17 0.0972724
O 0.00227081 -5.86736e-18 3.57299
H 0.246331 3.02025e-17 4.52565
H 0.717627 6.87164e-17 2.90273
6
Atoms. Timestep: 103
O 0.00647262 5.2473e-18 -0.582606
H 0.202383 -2.69718e-17 -1.56894
H 0.694883 -7.88217e-17 0.15618
O 0.00647262 -5.73931e-18 3.58261
H 0.202383 2.72878e-17 4.56894
H 0.694883 7.02515e-17 2.84382
6
Atoms. Timestep: 104
O -0.014189 8.3724e-18 -0.584962
H 0.387878 -5.30786e-17 -1.56156
H 0.837331 -1.03439e-16 0.0489885
O -0.014189 -8.68877e-18 3.58496
H 0.387878 5.16198e-17 4.56156
H 0.837331 9.34662e-17 2.95101
6
Atoms. Timestep: 105
O -0.0242832 1.0057e-17 -0.589999
H 0.489521 -6.77545e-17 -1.53783
H 0.895902 -1.16658e-16 -0.0322529
O -0.0242832 -1.02883e-17 3.59
H 0.489521 6.52561e-17 4.53783
H 0.895902 1.06008e-16 3.03225
6
Atoms. Timestep: 106
O -0.00919986 8.1696e-18 -0.601971
H 0.362611 -5.05804e-17 -1.56373
H 0.783409 -1.05049e-16 0.0460021
O -0.00919986 -8.53668e-18 3.60197
H 0.362611 4.9385e-17 4.56373
H 0.783409 9.49204e-17 2.954
6
Atoms. Timestep: 107
O 0.00931332 5.7852e-18 -0.615176
H 0.208831 -2.94895e-17 -1.57198
H 0.643348 -8.95728e-17 0.125993
O 0.00931332 -6.32059e-18 3.61518
H 0.208831 2.98052e-17 4.57198
H 0.643348 8.02415e-17 2.87401
6
Atoms. Timestep: 108
O -0.00281626 8.21702e-18 -0.620588
H 0.322969 -4.99874e-17 -1.54327
H 0.721731 -1.08991e-16 0.0452126
O -0.00281626 -8.62714e-18 3.62059
H 0.322969 4.89325e-17 4.54327
H 0.721731 9.86937e-17 2.95479
6
Atoms. Timestep: 109
O -0.0213982 1.17501e-17 -0.624149
H 0.493815 -8.00165e-17 -1.5131
H 0.845818 -1.36354e-16 -0.0665179
O -0.0213982 -1.19645e-17 3.62415
H 0.493815 7.69472e-17 4.5131
H 0.845818 1.24704e-16 3.06652
6
Atoms. Timestep: 110
O -0.0168539 1.12939e-17 -0.633129
H 0.447657 -7.30312e-17 -1.58183
H 0.819848 -1.37472e-16 0.00651565
O -0.0168539 -1.1549e-17 3.63313
H 0.447657 7.06254e-17 4.58183
H 0.819848 1.25484e-16 2.99348
6
Atoms. Timestep: 111
O 0.0018513 8.32074e-18 -0.645591
H 0.280354 -4.44935e-17 -1.65736
H 0.690262 -1.20232e-16 0.14145
O 0.0018513 -8.77284e-18 3.64559
H 0.280354 4.42335e-17 4.65736
H 0.690262 1.08965e-16 2.85855
6
Atoms. Timestep: 112
O 0.00195016 8.85128e-18 -0.653936
H 0.288004 -4.87794e-17 -1.64182
H 0.681043 -1.25923e-16 0.1198
O 0.00195016 -9.30083e-18 3.65394
H 0.288004 4.83331e-17 4.64182
H 0.681043 1.14498e-16 2.8802
6
Atoms. Timestep: 113
O -0.0163808 1.30752e-17 -0.658118
H 0.46616 -8.70906e-17 -1.552
H 0.793836 -1.56282e-16 -0.0423557
O -0.0163808 -1.33118e-17 3.65812
H 0.46616 8.41573e-17 4.552
H 0.793836 1.43727e-16 3.04236
6
Atoms. Timestep: 114
O -0.0193969 1.41254e-17 -0.665526
H 0.50471 -9.63817e-17 -1.52222
H 0.803157 -1.6535e-16 -0.0933582
O -0.0193969 -1.43313e-17 3.66553
H 0.50471 9.29883e-17 4.52222
H 0.803157 1.52609e-16 3.09336
6
Atoms. Timestep: 115
O -0.00131664 1.06549e-17 -0.677481
H 0.343079 -6.22144e-17 -1.61033
H 0.677819 -1.46174e-16 0.0456236
O -0.00131664 -1.10795e-17 3.67748
H 0.343079 6.13392e-17 4.61033
H 0.677819 1.34146e-16 2.95438
6
Atoms. Timestep: 116
O 0.00557345 9.71764e-18 -0.687253
H 0.279594 -5.04825e-17 -1.66678
H 0.631944 -1.44881e-16 0.118252
O 0.00557345 -1.02291e-17 3.68725
H 0.279594 5.07502e-17 4.66678
H 0.631944 1.32849e-16 2.88175
6
Atoms. Timestep: 117
O -0.0133472 1.4957e-17 -0.691802
H 0.445694 -9.4315e-17 -1.64386
H 0.766154 -1.86163e-16 0.0285006
O -0.0133472 -1.5251e-17 3.6918
H 0.445694 9.24912e-17 4.64386
H 0.766154 1.72542e-16 2.9715
6
Atoms. Timestep: 118
O -0.0251886 1.84512e-17 -0.697496
H 0.560322 -1.2561e-16 -1.59281
H 0.839472 -2.12413e-16 -0.0713006
O -0.0251886 -1.86087e-17 3.6975
H 0.560322 1.22168e-16 4.59281
H 0.839472 1.98019e-16 3.0713
6
Atoms. Timestep: 119
O -0.0117768 1.54535e-17 -0.707955
H 0.453246 -9.87661e-17 -1.61709
H 0.733675 -1.9387e-16 -0.0202247
O -0.0117768 -1.57759e-17 3.70796
H 0.453246 9.6884e-17 4.61709
H 0.733675 1.8025e-16 3.02022
6
Atoms. Timestep: 120
O 0.0081343 1.07519e-17 -0.719875
H 0.289343 -5.67185e-17 -1.65037
H 0.581549 -1.63598e-16 0.0630012
O 0.0081343 -1.1313e-17 3.71988
H 0.289343 5.71788e-17 4.65037
H 0.581549 1.51186e-16 2.937
6
Atoms. Timestep: 121
O -0.00227134 1.4653e-17 -0.726659
H 0.381659 -8.86607e-17 -1.63016
H 0.654391 -1.95994e-16 0.0112099
O -0.00227134 -1.50666e-17 3.72666
H 0.381659 8.76979e-17 4.63016
H 0.654391 1.82427e-16 2.98879
6
Atoms. Timestep: 122
O -0.0224504 2.15245e-17 -0.731573
H 0.558867 -1.46894e-16 -1.59001
H 0.797465 -2.49372e-16 -0.0902122
O -0.0224504 -2.16621e-17 3.73157
H 0.558867 1.43228e-16 4.59001
H 0.797465 2.33936e-16 3.09021
6
Atoms. Timestep: 123
O -0.0200831 2.13586e-17 -0.739826
H 0.538778 -1.41243e-16 -1.6461
H 0.779981 -2.551e-16 -0.0424242
O -0.0200831 -2.15214e-17 3.73983
H 0.538778 1.38231e-16 4.6461
H 0.779981 2.39276e-16 3.04242
6
Atoms. Timestep: 124
O -0.000480695 1.56624e-17 -0.750846
H 0.37397 -8.80264e-17 -1.72783
H 0.63366 -2.20757e-16 0.0748731
O -0.000480695 -1.60835e-17 3.75085
H 0.37397 8.79255e-17 4.72783
H 0.63366 2.06019e-16 2.92513
6
Atoms. Timestep: 125
O 0.00313848 1.53938e-17 -0.759736
H 0.351016 -8.57277e-17 -1.71365
H 0.59917 -2.21819e-16 0.062452
O 0.00313848 -1.58474e-17 3.75974
H 0.351016 8.58627e-17 4.71365
H 0.59917 2.07297e-16 2.93755
6
Atoms. Timestep: 126
O -0.0153335 2.30703e-17 -0.765519
H 0.518526 -1.54743e-16 -1.61613
H 0.724847 -2.77847e-16 -0.0826567
O -0.0153335 -2.32413e-17 3.76552
H 0.518526 1.51725e-16 4.61613
H 0.724847 2.61915e-16 3.08266
6
Atoms. Timestep: 127
O -0.0210519 2.59864e-17 -0.772867
H 0.575131 -1.8003e-16 -1.58363
H 0.759006 -3.02233e-16 -0.137863
O -0.0210519 -2.60673e-17 3.77287
H 0.575131 1.75975e-16 4.58363
H 0.759006 2.85709e-16 3.13786
6
Atoms. Timestep: 128
O -0.00459989 2.03351e-17 -0.783061
H 0.435316 -1.23739e-16 -1.68859
H 0.637694 -2.72354e-16 -0.0104069
O -0.00459989 -2.06551e-17 3.78306
H 0.435316 1.22628e-16 4.68859
H 0.637694 2.56484e-16 3.01041
6
Atoms. Timestep: 129
O 0.00478262 1.75759e-17 -0.792467
H 0.35626 -9.39736e-17 -1.75739
H 0.56783 -2.62086e-16 0.0684318
O 0.00478262 -1.80291e-17 3.79247
H 0.35626 9.45296e-17 4.75739
H 0.56783 2.46382e-16 2.93157
6
Atoms. Timestep: 130
O -0.0118409 2.597e-17 -0.798783
H 0.499072 -1.64798e-16 -1.72115
H 0.688867 -3.28477e-16 -0.00681253
O -0.0118409 -2.61511e-17 3.79878
H 0.499072 1.62652e-16 4.72115
H 0.688867 3.10873e-16 3.00681
6
Atoms. Timestep: 131
O -0.0250982 3.28858e-17 -0.805325
H 0.620119 -2.27848e-16 -1.64487
H 0.77824 -3.79443e-16 -0.118479
O -0.0250982 -3.28521e-17 3.80533
H 0.620119 2.23086e-16 4.64487
H 0.77824 3.60707e-16 3.11848
6
Atoms. Timestep: 132
O -0.013658 2.83769e-17 -0.814531
H 0.532294 -1.88132e-16 -1.66707
H 0.684487 -3.52093e-16 -0.0893338
O -0.013658 -2.85349e-17 3.81453
H 0.532294 1.85047e-16 4.66707
H 0.684487 3.34306e-16 3.08933
6
Atoms. Timestep: 133
O 0.00687772 1.95626e-17 -0.824881
H 0.366425 -1.08688e-16 -1.72672
H 0.524411 -2.96282e-16 -0.00451176
O 0.00687772 -2.00613e-17 3.82488
H 0.366425 1.08924e-16 4.72672
H 0.524411 2.80199e-16 3.00451
6
Atoms. Timestep: 134
O -0.00159645 2.54763e-17 -0.83258
H 0.438827 -1.55809e-16 -1.71708
H 0.586512 -3.47889e-16 -0.0309693
O -0.00159645 -2.58233e-17 3.83258
H 0.438827 1.54622e-16 4.71708
H 0.586512 3.30447e-16 3.03097
6
Atoms. Timestep: 135
O -0.0226879 3.82164e-17 -0.83893
H 0.617547 -2.63962e-16 -1.66513
H 0.742557 -4.47067e-16 -0.121044
O -0.0226879 -3.81939e-17 3.83893
H 0.617547 2.59081e-16 4.66513
H 0.742557 4.27075e-16 3.12104
6
Atoms. Timestep: 136
O -0.0223068 3.89685e-17 -0.846783
H 0.618693 -2.65572e-16 -1.70273
H 0.735361 -4.62834e-16 -0.0976448
O -0.0223068 -3.89658e-17 3.84678
H 0.618693 2.61025e-16 4.70273
H 0.735361 4.42408e-16 3.09764
6
Atoms. Timestep: 137
O -0.00235223 2.85049e-17 -0.856256