LAMMPS (16 Mar 2018)
# some global params
units real
boundary p p p #all periodic
atom_style full #bonds, bends, torsions, etc
timestep 1.000000 # femtoseconds (1e-15 s)

# the atoms file
#read_restart water_pair.restart
read_data water_pair.xyz
  orthogonal box = (-5 -5 -5) to (5 5 5)
  1 by 1 by 1 MPI processor grid
  reading atoms ...
  6 atoms
  scanning bonds ...
  2 = max bonds/atom
  scanning angles ...
  1 = max angles/atom
  reading bonds ...
  4 bonds
  reading angles ...
  2 angles
  2 = max # of 1-2 neighbors
  1 = max # of 1-3 neighbors
  1 = max # of 1-4 neighbors
  2 = max # of special neighbors
#replicate 10 10 10

# methods for potential/force calculations
kspace_style ewald/disp 1.0e-6
pair_style lj/cut/coul/long 10

#pair_characterization eps sigma cut_1 cut_2
pair_coeff 2 2 0 3.428 10 #H-H sigma = r_min-i+r_min-j
pair_coeff 1 2 0 3.3 10 #O-H Mixing rules were RMS
pair_coeff 1 1 0.15535 3.166 9.4 #O-O http://citeseerx.ist.psu.edu/viewdoc/download?doi=10.1.1.460.309&rep=rep1&type=pdf
#bond_coeff N args
bond_style harmonic
bond_coeff 1 0 1.0
#angle_coeff N args
angle_style harmonic
angle_coeff 1 0 109.47

fix holditbond1 all restrain bond 1 2 1000 1000 1
fix holditbond2 all restrain bond 1 3 1000 1000 1
fix holditbond3 all restrain bond 4 5 1000 1000 1
fix holditbond4 all restrain bond 4 6 1000 1000 1

#fix ID group-ID restrain angle atom1 atom2 atom3 Kstart Kstop theta
fix holditangle1 all restrain angle 2 1 3 1000 1000 109.47
fix holditangle2 all restrain angle 5 4 6 1000 1000 109.47

dump Dump all xyz 1 lammps_traj.xyz
dump_modify Dump sort id
dump_modify Dump element O H
dump_modify Dump pbc yes

dump Dumplammps all atom 100 dump.lammps

restart 10 water_pair.1.restart water_pair.restart

thermo_style one #print to terminal
thermo 10

#velocity all create 100 12345 rot yes mom yes dist gaussian
fix 2 all nvt temp 298 298 1000 #iso 10 10 1000 random_number atoms_assigned ensemble thermostat start_temp end_temp gradient_step
#fix 3 all rigid/nvt molecule temp 293 293 100

run 20000
EwaldDisp initialization ...
  G vector = 0.311598   accuracy = 0.000332064
Neighbor list info ...
  update every 1 steps, delay 10 steps, check yes
  max neighbors/atom: 2000, page size: 100000
  master list distance cutoff = 12
  ghost atom cutoff = 12
  binsize = 6, bins = 2 2 2
  2 neighbor lists, perpetual/occasional/extra = 2 0 0
  (1) pair lj/cut/coul/long, perpetual
      attributes: half, newton on
      pair build: half/bin/newton
      stencil: half/bin/3d/newton
      bin: standard
  (2) pair lj/cut/coul/long, perpetual, copy from (1)
      attributes: half, newton on
      pair build: copy
      stencil: none
      bin: none
  vectors: nbox = 4, nkvec = 128
Per MPI rank memory allocation (min/avg/max) = 15.36 | 15.36 | 15.36 Mbytes
Step Temp E_pair E_mol TotEng Press 
       0            0    5.1011691            0    5.1011691    315.70024 
      10    7962.1222    4.5652362            0    123.23311     5694.963 
      20    2198.5633    3.1611182            0    35.928617    1686.0356 
      30    5746.5599      4.19529            0    89.842307    4105.0807 
      40    5966.0274    3.7584641            0    92.676437    4204.7498 
      50    1737.5419    2.1251271            0    28.021538     1252.095 
      60    7817.5056    2.6745136            0    119.18701    5393.3964 
      70    226.68613    2.3646989            0    5.7432404     205.7275 
      80    7542.0873    1.9958452            0    114.40349    5175.9935 
      90    2794.4241      1.46867            0    43.116907    1927.4905 
     100    4511.5118     1.647237            0    68.887035    3101.0583 
     110    6049.7338    1.5786849            0    91.744222    4147.7286 
     120    790.29543    1.0407717            0    12.819375    552.82172 
     130    7204.8679    1.3738903            0     108.7556    4931.1214 
     140    813.28627    1.1711068            0    13.292366    572.21593 
     150    5564.9328    1.1710353            0    84.111074    3809.6733 
     160    4218.9812    1.0833253            0    63.963232    2890.6725 
     170    1808.4755     1.211598            0    28.165208    1251.2207 
     180     6420.149    1.3239933            0    97.010217    4395.3967 
     190    254.28592    1.0184228            0     4.808313    187.23259 
     200    5234.1828     1.527543            0    79.538066    3591.0772 
     210      3153.26    1.4885151            0    48.484861    2172.1346 
     220    1867.4277    1.4541035            0    29.286339    1295.2668 
     230     6036.374    1.6768041            0    91.643225    4141.0973 
     240    299.79341    2.0274965            0    6.4956326    242.21231 
     250    4589.2366    2.0299958            0    70.428208    3166.7076 
     260    2998.3907    1.7719051            0     46.46007    2080.4109 
     270    1057.6892    2.8566842            0    18.620537    789.76891 
     280    5527.5319    2.3847448            0    84.767358    3829.6377 
     290    513.37316    2.3869424            0    10.038282    419.03189 
     300    3545.4072    3.0472652            0    55.888192    2510.4555 
     310    3606.7927    3.0668436            0    56.822664    2558.1943 
     320    332.20373    2.6679371            0    7.6191182    316.40412 
     330    4944.1786    2.7775484            0    76.465835    3463.5462 
     340    1160.7092    3.4315683            0    20.730837    900.00994 
     350    1995.7067    2.2641935            0    32.008306    1431.2565 
     360    4354.4547    2.6161519            0    67.515163    3041.1241 
     370    226.99856    2.7779339            0    6.1611319     227.4884 
     380    4056.8138    2.1548653            0    62.617822    2814.9481 
     390    2803.5046    2.0448282            0    43.828402    1953.8355 
     400    689.23993    2.1272026            0    12.399669    512.37853 
     410    4469.6375    1.9665829            0    68.582285    3081.8057 
     420    881.16505    1.3978128            0    14.530741    622.64543 
     430     2175.829     1.826107            0    34.254772     1513.989 
     440    4023.9158    1.4553084            0    61.427952    2764.4846 
     450    239.77653    1.2978641            0    4.8715055    182.94842 
     460    3578.6654    1.3693409            0    54.705949    2459.6334 
     470    2413.2853    1.2681728            0    37.235898    1663.7038 
     480    552.91975     1.197397            0    9.4381407    395.07926 
     490    4094.0898     1.066487            0    62.085007     2804.948 
     500    945.14207    1.2965808            0    15.383026    665.03535 
     510    1622.7627   0.96648258            0    25.152219    1119.2035 
     520    3663.8919    1.1673053            0    55.774135    2514.4324 
     530    320.57709     1.152811            0     5.930708    236.24542 
     540    2909.7973    1.1080814            0    44.475846     1999.096 
     550    2855.7713    1.1607786            0    43.723338    1963.3291 
     560    251.73227    1.2251621            0    4.9769926     190.4111 
     570    3331.2007    1.3179338            0    50.966317    2290.1723 
     580     1565.615    1.1237154            0     24.45772    1082.6752 
     590    664.75433    1.5631787            0    11.470711    478.56072 
     600    3481.4318    1.3306231            0    53.218057    2392.0957 
     610    707.88485    1.4465471            0    11.996899    505.08096 
     620     1392.212    1.6607586            0    22.410356    976.32775 
     630    3170.7217    1.6855512            0    48.942147    2188.8861 
     640    287.27026     1.580263            0    5.8617533    222.40346 
     650    2108.2424    1.8499484            0    33.271299    1470.0213 
     660    2517.8395    2.0591038            0     39.58511    1754.7246 
     670    12.589639    1.5796678            0    1.7673044    37.561032 
     680    2410.9136     2.193701            0    38.126079    1686.7872 
     690    1899.7287    2.0659733            0    30.379625    1336.3375 
     700    187.32526    1.8835306            0    4.6754357    165.60533 
     710    2712.1984    2.0671085            0     42.48985    1890.5473 
     720    1312.4776    2.2204399            0    21.781672    940.48487 
     730    424.54344    1.8393096            0    8.1667263    325.93987 
     740     2779.777     1.922293            0    43.352229    1931.9954 
     750    877.49579    2.1828791            0     15.26112    641.32994 
     760    694.35187    1.5996098            0    11.948265    501.98486 
     770    2593.1409    1.8922634            0    40.540565      1801.66 
     780    502.50826    1.7388722            0    9.2282806    373.15912 
     790    1034.9203    1.5237602            0    16.948264    730.30597 
     800    2534.4322    1.2189913            0    38.992296     1744.593 
     810    358.83299   0.89664583            0    6.2447108    254.76403 
     820    1396.8488  -0.11052747            0    20.708177    938.96035 
     830    2422.8432   -1.3319397            0    34.778237    1610.1525 
     840    413.54411   -3.0385519            0    3.1249304    202.35448 
     850      1872.41   -2.3751085            0    25.531385    1211.5964 
     860    2088.8246   -2.5851191            0    28.546828    1354.1586 
     870     296.3018   -3.5229813            0   0.89311565    111.70228 
     880     2008.681   -2.4388828            0      27.4986    1303.3577 
     890    1704.5639   -1.5872023            0    23.817703    1115.6451 
     900    240.27531  -0.98011435            0     2.600961    132.01518 
     910    1974.0564 -0.019887561            0    29.401548    1335.1996 
     920    1237.2168   0.40603828            0     18.84558    842.90188 
     930    183.69246   0.61345322            0    3.3512148    129.71518 
     940    1966.8142   0.46508513            0    29.778583     1341.329 
     950     1057.472    0.2089537            0    15.969569    715.97713 
     960    273.96692  -0.56012052            0    3.5230963    164.74346 
     970     1975.676   -1.1184821            0    28.327092    1311.4714 
     980    961.54477   -1.2476061            0    13.083305    617.76822 
     990    425.21366   -1.7033162            0    4.6340895    242.11721 
    1000    1965.3506  -0.93114744            0    28.360537    1309.0757 
    1010    704.99543  -0.55122629            0     9.956061    459.24963 
    1020    469.19007  -0.50920086            0    6.4836315    299.65229 
    1030     1899.721  -0.59332122            0    27.720217    1272.2048 
    1040    649.04515  -0.85899815            0    8.8144033    414.02587 
    1050    628.92512   -1.9975096            0     7.376022     374.3168 
    1060    1870.1217   -2.4286104            0    25.443777     1210.022 
    1070    567.31207   -1.9539668            0    6.5012809    333.35981 
    1080     663.1943   -2.5808752            0     7.303406    384.27104 
    1090     1722.648   -1.5608972            0    24.113535    1129.4543 
    1100    343.93051  -0.95501297            0    4.1709446    204.08632 
    1110    672.93836   -1.0205622            0    9.0089449    426.89169 
    1120      1616.26  -0.85901311            0    23.229807    1073.0546 
    1130    323.04009  -0.74386117            0    4.0707446    194.61039 
    1140    769.40619   -1.0800848            0    10.387184     491.1133 
    1150     1561.951   -1.2369378            0    22.042458      1027.39 
    1160    280.15872   -1.2713798            0    2.9041198    153.37145 
    1170    765.02163   -2.1935721            0    9.2083486    462.56066 
    1180    1502.4304   -2.2514254            0    20.140873    963.48643 
    1190    275.19083    -2.070875            0    2.0305829    131.40519 
    1200    827.71535   -2.7127396            0    9.6235716    493.00812 
    1210     1409.208   -2.4503735            0    18.552533    895.06315 
    1220    240.41245   -1.6689792            0      1.91414    116.53701 
    1230    867.69927    -2.409053            0     10.52318    526.85279 
    1240    1379.9018    -2.308241            0    18.257884    878.06673 
    1250    238.15721   -1.9173234            0    1.6321837    109.09623 
    1260    853.06318   -2.9624334            0    9.7516631     504.1107 
    1270    1298.4012   -2.7527871            0    16.598649    812.21737 
    1280     196.7913   -2.1330366            0   0.79995075    75.590769 
    1290    838.77608   -2.5634221            0    9.9377388     502.9112 
    1300    1194.3911   -2.5153496            0    15.285915    746.20415 
    1310    144.53486   -1.9788619            0   0.17529288    43.004724 
    1320     798.3157   -2.6099734            0    9.2881639    473.90196 
    1330    1168.5861   -2.6036008            0    14.813066    726.31659 
    1340    200.77334   -2.5468808            0   0.44545514    68.293426 
    1350    838.03605   -3.5462008            0    8.9439306    480.00886 
    1360     1154.176   -3.2614613            0    13.940435    702.59069 
    1370    198.35714   -2.1942411            0   0.76208363    77.128271 
    1380    816.76664   -3.0766203            0    9.0965108    480.83868 
    1390    1102.0748   -3.2424479            0    13.182931    675.24076 
    1400    199.91099   -2.6938599            0   0.28562352    79.239405 
    1410    798.29051   -4.0568119            0      7.84095    466.32779 
    1420    1066.7357   -3.8486885            0    12.049995    675.32361 
    1430     223.3695   -3.7675354            0  -0.43842517    143.24401 
    1440    942.60547   -6.2564191            0    7.7922202     657.0829 
    1450    1172.0579   -7.2110264            0    10.257384    967.86022 
    1460    335.53341   -5.2835478            0  -0.28274092    806.94752 
    1470    951.19916   -6.4385651            0    7.7381549    1812.4605 
    1480    913.65474   -3.4397375            0    10.177419    2370.2399 
    1490    190.69704   -3.5736297            0   -0.7314714    1705.5003 
    1500    842.67677   -4.0700576            0    8.4892394    1637.7058 
    1510    874.48009   -4.9015633            0    8.1317319    1205.7873 
    1520    292.38877   -5.7107527            0   -1.3529757    500.68274 
    1530    933.37604   -5.1799096            0    8.7311739    791.76418 
    1540    836.23516   -5.0290332            0    7.4342577    629.26829 
    1550    231.39679   -4.8060918            0   -1.3573424    152.54105 
    1560    856.67882   -5.7754733            0    6.9925108     516.2581 
    1570    767.85827   -4.2949281            0    7.1492702    466.39136 
    1580    66.445746   -2.7989027            0    -1.808592    11.265845 
    1590    698.58855   -3.6464434            0    6.7653554    417.02444 
    1600    717.53306    -3.839143            0    6.8550058    424.83288 
    1610    96.769006   -2.8644993            0   -1.4222491    25.572778 
    1620     700.1709   -3.9608666            0    6.4745157     412.8944 
    1630    770.54648   -4.4293224            0    7.0549411    450.55747 
    1640     150.1034   -3.5919501            0   -1.3548015    48.740713 
    1650    641.61471   -4.0207934            0    5.5418645    379.12777 
    1660    680.52561   -3.4506961            0    6.6918918    427.50537 
    1670    72.743777   -3.2958607            0   -2.2116838    30.653684 
    1680    646.81246   -4.6575538            0    4.9825716     412.1837 
    1690    780.34101    -5.358917            0    6.2713246    529.48162 
    1700    209.90845   -4.8839326            0   -1.7554466     229.5227 
    1710    740.68905   -7.3883021            0    3.6509647    667.75843 
    1720    865.04589    -6.658869            0    6.2338184    981.25982 
    1730    170.52423   -4.7714368            0   -2.2299351     903.9243 
    1740    639.66698   -5.6502805            0    3.8833483    1724.1578 
    1750    636.83242   -4.1444859            0    5.3468964    2146.6559 
    1760      134.981   -4.0364186            0    -2.024655    1452.0581 
    1770    636.23503   -5.9399719            0    3.5425069    1138.4723 
    1780    732.04925   -5.3630926            0    5.5474062    853.04845 
    1790    202.21077   -4.9378598            0   -1.9241003    311.35732 
    1800    574.08417   -6.2598242            0    2.2963551    434.11927 
    1810    713.33079    -5.174493            0     5.457025    497.07235 
    1820    142.26479   -4.8724114            0   -2.7520898    78.808692 
    1830     488.4558   -5.1605765            0    2.1193933    289.05051 
    1840    697.54493   -5.3376351            0    5.0586096    416.96703 
    1850    160.99149   -4.4273551            0   -2.0279299    70.367278 
    1860    442.77333   -5.5105419            0    1.0885741    241.81808 
    1870    671.37753   -5.0496904            0    4.9565541    417.25247 
    1880    128.99486   -3.9209729            0    -1.998427    88.668683 
    1890    372.08141   -4.8021049            0   0.74341514    254.80746 
    1900    626.21491   -4.4871981            0    4.8459404    462.69204 
    1910    127.85368   -3.7407441            0   -1.8352064    187.77053 
    1920    392.66289   -5.1848892            0    0.6673782    405.00542 
    1930    688.88916   -5.8326873            0    4.4345514    713.78572 
    1940    229.32114     -5.68668            0   -2.2688661    609.20633 
    1950    390.80673   -5.5510951            0    0.2735081     1040.133 
    1960    612.49622   -4.8860891            0    4.2425854    1487.7347 
    1970    263.81795   -6.4003579            0   -2.4684018    1268.5245 
    1980    455.40922   -6.9167678            0  -0.12932591    1219.3596 
    1990    643.87236   -6.4846514            0    3.1116546    1067.9102 
    2000    214.03433   -4.9759089            0   -1.7859304    581.97009 
    2010    396.18575   -6.5218158            0  -0.61704356    502.80604 
    2020    603.96494   -5.5781818            0     3.423342    555.81687 
    2030    159.37094   -4.9701823            0   -2.5949098    199.67871 
    2040    278.72783   -4.5299055            0  -0.37573181    255.28573 
    2050    535.40421   -4.6780521            0    3.3016392    402.45664 
    2060    208.50069   -5.2914692            0   -2.1839644    156.89051 
    2070    341.75742   -6.0354202            0  -0.94185052    233.91748 
    2080    562.74381   -5.7734613            0    2.6137008    400.34106 
    2090    197.84385   -4.6467476            0   -1.6980728    205.49697 
    2100    299.02243   -6.2152068            0   -1.7585615    280.68448 
    2110    556.49242   -5.7882988            0    2.5056922    532.92215 
    2120    254.64816   -5.7604106            0   -1.9651216    442.08714 
    2130    346.01374   -6.7941175            0   -1.6371114    654.22559 
    2140     507.4534   -5.5186687            0    2.0444423    1035.9039 
    2150     184.9042   -5.0475429            0   -2.2917214    1063.5016 
    2160    293.45033   -6.4987906            0   -2.1251922    1163.6177 
    2170    505.29919   -5.7557792            0    1.7752253    1190.6569 
    2180    188.88956   -4.4592836            0   -1.6440641    840.93492 
    2190    296.14717   -6.3628425            0   -1.9490502    714.92078 
    2200    570.72209   -7.3677963            0    1.1382745    764.28871 
    2210    300.16396   -6.6626567            0   -2.1889979    526.39934 
    2220    299.28028   -6.3041744            0   -1.8436861     452.9527 
    2230    461.07388   -5.8949947            0   0.97687361    494.63901 
    2240    247.58159   -5.7745896            0   -2.0846212    311.35136 
    2250    261.19716   -6.3422297            0   -2.4493342    291.67539 
    2260    395.34183   -5.2564038            0   0.63579067    412.46424 
    2270    161.98465   -4.4584994            0    -2.044272    294.73977 
    2280    188.24952   -5.1929577            0   -2.3872774    320.76945 
    2290    365.65586   -5.3419031            0   0.10785026    468.05723 
    2300    233.55352   -5.3195349            0   -1.8386415    447.61421 
    2310    329.77082   -7.2608015            0   -2.3458806    554.78421 
    2320    440.09736   -6.4220863            0   0.13714682    772.80743 
    2330    224.33218   -5.8673565            0   -2.5238983    789.79622 
    2340    327.61552   -7.3298055            0   -2.4470073    886.73615 
    2350    457.31927    -7.140223            0  -0.32431368    947.51486 
    2360    224.40404   -5.5113422            0   -2.1668131    795.25806 
    2370    256.99209   -5.9551924            0   -2.1249693    725.54631 
    2380    343.05375   -5.9799431            0  -0.86705277    685.22053 
    2390    207.95243   -5.6514262            0   -2.5520927    528.99634 
    2400    282.08821   -6.3306692            0   -2.1264123    485.30964 
    2410    293.25923   -5.2918128            0  -0.92106247    463.92946 
    2420    153.70648   -5.4719619            0   -3.1811128    346.91852 
    2430    298.04044   -6.3904982            0   -1.9484886    409.40301 
    2440    374.98599   -6.8083868            0   -1.2195768    446.59134 
    2450    229.82525   -6.0509724            0   -2.6256453    391.87108 
    2460    314.76867   -7.0176486            0   -2.3263205    458.34034 
    2470    338.33095   -6.2407506            0   -1.1982491    559.11823 
    2480    190.96443   -6.0368472            0   -3.1907037    576.44626 
    2490    296.37019   -6.3350465            0   -1.9179303     746.3598 
    2500    287.09616   -5.6471611            0   -1.3682655    863.53978 
    2510    163.77229   -6.0374811            0   -3.5966106    879.84476 
    2520    340.71856   -7.0092868            0   -1.9312003    951.03729 
    2530    335.58511   -6.7474039            0   -1.7458266    840.26077 
    2540    146.33968   -5.4777779            0    -3.296724    634.43093 
    2550    305.69505   -6.9356555            0   -2.3795612    575.17791 
    2560    346.43062   -6.5358685            0   -1.3726491    543.09223 
    2570    141.18154   -6.5858758            0   -4.4816989    379.17316 
    2580      266.499   -5.6333681            0   -1.6614537    465.17522 
    2590    304.48877   -6.0447046            0   -1.5065887     453.3349 
    2600    144.75034   -6.3736824            0    -4.216316    326.84259 
    2610    293.00246   -6.4886872            0   -2.1217638    425.24698 
    2620    335.36397    -6.448993            0   -1.4507116    492.16461 
    2630     95.45875   -5.5376349            0   -4.1149129    439.66592 
    2640    253.64818   -6.2544504            0   -2.4740652     586.3854 
    2650    349.38898   -6.5496985            0   -1.3423876      697.721 
    2660    108.58215   -6.1530293            0   -4.5347155     621.8072 
    2670    273.90497   -6.3941399            0   -2.3118465    761.79668 
    2680    352.68239   -6.6408232            0   -1.3844271    834.74534 
    2690    98.508685   -6.4732354            0    -5.005057    666.61388 
    2700    312.70943   -7.4778992            0   -2.8172621    697.24903 
    2710    336.36418   -6.3404371            0   -1.3272485    670.40772 
    2720    41.124799   -5.4042671            0   -4.7913411    445.11091 
    2730    231.96678   -6.2495516            0   -2.7923071    502.75318 
    2740    338.65619   -6.5658431            0   -1.5184941        569.9 
    2750    60.824372   -5.8781054            0   -4.9715759     444.1967 
    2760    205.05533   -6.0757812            0   -3.0196262    551.21126 
    2770      357.868   -6.3755689            0   -1.0418862    654.47199 
    2780    141.90938   -7.0573555            0   -4.9423309    493.48771 
    2790    241.25306   -7.1019006            0   -3.5062528    549.06059 
    2800    343.73145    -6.390981            0   -1.2679902    663.09785 
    2810    90.564199   -5.9704947            0   -4.6207213    520.87858 
    2820    209.22004   -6.6168892            0   -3.4986631    559.31388 
    2830    349.22022   -6.8969539            0   -1.6921582    646.91188 
    2840    67.138773   -5.8101842            0   -4.8095445    501.96656 
    2850    152.78187   -5.9996427            0    -3.722574    536.19538 
    2860    359.27021   -6.6457169            0   -1.2911356    648.77603 
    2870    134.19488   -6.6736386            0   -4.6735913    478.84715 
    2880    172.29586   -6.7417194            0   -4.1738133    475.00351 
    2890     318.5163   -6.4617893            0   -1.7146063    607.01644 
    2900    146.17321   -6.4928142            0   -4.3142413    539.65356 
    2910    213.35286   -7.2442948            0   -4.0644731     617.4441 
    2920    315.81125   -6.4251768            0     -1.71831     774.9415 
    2930    110.86451   -6.2879347            0   -4.6356045    653.27206 
    2940    158.14291   -6.4197088            0    -4.062739     626.0697 
    2950    313.65434   -6.7482642            0   -2.0735442    693.61615 
    2960     124.8882   -5.7633716            0   -3.9020315    556.58731 
    2970    120.95582    -6.354499            0   -4.5517674    473.77999 
    2980    290.74644   -6.5860111            0   -2.2527116     542.7033 
    2990    189.00486   -6.5723643            0   -3.7554263    434.35209 
    3000    181.67628   -7.1649473            0   -4.4572349     384.7538 
    3010    288.05294   -6.5467494            0   -2.2535939    483.92496 
    3020    132.04608   -6.4490708            0   -4.4810493    385.08115 
    3030    136.91278   -6.2288279            0    -4.188273    390.10607 
    3040    281.15108     -7.04579            0   -2.8555001    491.66346 
    3050    138.06202   -5.7071776            0   -3.6494943    481.77115 
    3060    113.45117   -6.3800888            0   -4.6892068    523.54534 
    3070    265.94195   -6.8058911            0    -2.842279    742.09808 
    3080    184.49423   -6.5483624            0   -3.7986511    829.74132 
    3090    165.93713   -6.9198436            0   -4.4467083    875.59898 
    3100    239.65607   -6.5106385            0   -2.9387924    944.50065 
    3110    172.87533   -6.7244767            0   -4.1479341    765.74969 
    3120    191.24513   -7.2056477            0   -4.3553208    615.70124 
    3130    233.94027    -6.676088            0   -3.1894304     558.2628 
    3140    146.27109   -5.8920083            0   -3.7119767    417.70349 
    3150    153.08045    -6.742596            0   -4.4610773     319.1576 
    3160    216.21421   -6.6103075            0   -3.3878401    328.77072 
    3170    154.17759   -6.4238949            0   -4.1260244    276.29454 
    3180    146.62332   -6.3500686            0   -4.1647872     281.0869 
    3190    188.56486   -6.2763868            0   -3.4660066    350.27072 
    3200    145.91923   -6.3102643            0   -4.1354768    353.88145 
    3210    180.99616   -7.1423198            0   -4.4447439    410.36479 
    3220    231.03849   -6.7386269            0   -3.2952177    560.30343 
    3230    152.38712   -6.4589137            0   -4.1877285    666.13472 
    3240    189.26707   -7.1132495            0   -4.2924036    878.42886 
    3250    236.96892   -7.3072171            0   -3.7754204    1111.8527 
    3260    125.70902   -6.1873398            0   -4.3137663    1078.6075 
    3270    173.32801   -6.7311907            0   -4.1479013    924.55316 
    3280    221.22485   -6.8226225            0   -3.5254762    747.55922 
    3290     125.7257   -6.1335787            0   -4.2597565    498.49728 
    3300    166.68389   -6.9897218            0   -4.5054567    365.66545 
    3310    204.20573   -6.3988716            0   -3.3553791    325.96523 
    3320    122.77552   -6.4347065            0   -4.6048539    211.86926 
    3330    182.92771   -6.8889404            0   -4.1625767    216.49885 
    3340    217.48167   -6.7876906            0   -3.5463329    244.73077 
    3350     107.8607    -6.214377            0   -4.6068157    196.46592 
    3360      150.021   -6.6562565            0   -4.4203359    255.15528 
    3370    220.71383    -6.610826            0   -3.3212959    373.23801 
    3380    118.92101   -6.2987497            0    -4.526345    417.47865 
    3390    144.95344   -7.0058593            0   -4.8454659    594.77274 
    3400    231.80524   -6.6687605            0   -3.2139235    947.84413 
    3410    125.28842   -6.3720376            0   -4.5047326    1171.2688 
    3420    120.36241   -6.7381674            0     -4.94428    1286.2318 
    3430    251.20029   -6.8016397            0   -3.0577379     1211.455 
    3440    153.06003   -6.9030822            0   -4.6218678    816.09966 
    3450    146.39877   -7.3646219            0   -5.1826873    547.97039 
    3460    261.67651   -6.9634105            0   -3.0633707    458.78722 
    3470    129.00541   -6.4620955            0   -4.5393924    265.20928 
    3480    101.62038   -6.6205866            0   -5.1060314    178.01613 
    3490     214.1587   -6.3499645            0   -3.1581325    226.85479 
    3500    91.472214   -5.7384706            0   -4.3751641    139.59187 
    3510    69.453564   -6.5514743            0   -5.5163348     110.3855 
    3520    227.39904    -6.258011            0   -2.8688444    252.12652 
    3530    141.53162   -6.5545194            0   -4.4451251    233.45232 
    3540    110.48932   -7.1889475            0   -5.5422092    288.20089 
    3550    276.71093   -7.1115448            0   -2.9874311    545.85412 
    3560    187.68457   -7.0047722            0   -4.2075119    698.02455 
    3570    107.03186   -7.2733437            0   -5.6781354    938.98923 
    3580    218.77998   -6.4917999            0   -3.2310921    1285.1073 
    3590    131.15445   -6.1447855            0   -4.1900531    1219.3458 
    3600    65.196353   -7.0595573            0   -6.0878676    924.36266 
    3610    234.69728   -6.3379878            0   -2.8400477     805.3079 
    3620    163.90847   -6.6232309            0   -4.1803308    552.54838 
    3630    87.974909    -7.211883            0   -5.9007005    356.78537 
    3640    258.97891   -6.9616155            0   -3.1017807    388.88803 
    3650      168.629   -6.5820416            0   -4.0687865     273.1766 
    3660    54.194897   -6.8321299            0   -6.0244065    159.93985 
    3670    226.72242    -6.514155            0   -3.1350727    271.22108 
    3680     168.8691   -6.4061126            0   -3.8892791    243.42542 
    3690    44.780912   -6.8300176            0   -6.1626006    187.67506 
    3700    216.67757    -6.489515            0   -3.2601415    378.96264 
    3710    186.33023   -6.3234262            0    -3.546351    468.75198 
    3720    66.707995   -7.4540965            0   -6.4598772    514.44883 
    3730    228.87407   -6.6989934            0   -3.2878428     844.1409 
    3740    179.15061   -6.4803147            0    -3.810245    1013.4841 
    3750    44.020525   -6.8578653            0   -6.2017812    1018.8181 
    3760    207.61993   -6.5790884            0   -3.4847105    1039.8975 
    3770     216.5368   -6.7503827            0   -3.5231073    854.30631 
    3780    61.597938    -7.237717            0   -6.3196582    568.19083 
    3790    212.79445   -6.8388168            0   -3.6673177    544.36826 
    3800    237.88562   -6.7882984            0   -3.2428392    462.89042 
    3810    45.380561   -7.1420346            0   -6.4656805    254.96308 
    3820    161.35827   -6.0733446            0   -3.6684528    312.21395 
    3830    199.95676   -6.4055638            0   -3.4253983    305.88034 
    3840    28.899448   -6.6166403            0   -6.1859214    187.91191 
    3850    154.33504   -6.2668448            0   -3.9666276    304.83144 
    3860    227.80512   -6.5244628            0   -3.1292439    400.66462 
    3870    56.697948   -7.2159769            0   -6.3709479    347.45218 
    3880    186.26917   -6.8920251            0   -4.1158601    545.87544 
    3890    275.35619   -7.2232177            0   -3.1192952    743.61939 
    3900    66.616868   -7.0425857            0   -6.0497246    775.63094 
    3910    136.77748   -6.4389264            0   -4.4003879    932.37656 
    3920    236.47438   -6.5415623            0   -3.0171363    976.66992 
    3930    53.075816   -6.9894226            0   -6.1983779    723.63214 
    3940    110.87452   -5.9324978            0   -4.2800184    675.36339 
    3950     241.9298   -6.6590403            0   -3.0533064    662.75181 
    3960    94.702615   -7.4443947            0   -6.0329422    481.16212 
    3970    155.12086   -6.8054925            0   -4.4935634    472.30677 
    3980    251.11656   -6.9280078            0    -3.185354    481.11181 
    3990     84.79526    -6.857682            0   -5.5938892    330.29203 
    4000    124.20088   -6.7552918            0   -4.9041957    334.97772 
    4010    241.65627   -6.5182877            0   -2.9166304    432.41093 
    4020    75.092232   -7.0737975            0   -5.9546191     328.3651 
    4030     99.59418   -6.0901107            0    -4.605754    411.00255 
    4040    246.50147   -6.7782679            0   -3.1043977     558.3102 
    4050    119.92284   -7.2319131            0   -5.4445771    541.69142 
    4060    107.42644    -6.553816            0    -4.952727    642.64175 
    4070    221.60358   -6.5341026            0   -3.2313117    808.88512 
    4080    113.01046   -6.9275162            0   -5.2432025    752.64302 
    4090    101.80466   -6.6327446            0   -5.1154428    720.68518 
    4100    237.84309   -6.6455596            0   -3.1007343    779.34237 
    4110    131.72401   -7.4193027            0   -5.4560813    640.52199 
    4120    113.20922    -6.560472            0   -4.8731961    604.99832 
    4130    255.61496   -7.1744037            0   -3.3647055    630.21397 
    4140     118.9556   -6.8877169            0   -5.1147967    474.05505 
    4150    59.830384   -6.1114168            0   -5.2197018    393.69153 
    4160    206.42035   -6.5197403            0    -3.443241    447.71604 
    4170    116.67227   -6.7781089            0   -5.0392195    360.35724 
    4180    78.721919   -6.1280498            0   -4.9547744    356.05959 
    4190    223.22309   -6.8784755            0   -3.5515474    462.63127 
    4200    154.09656    -7.125886            0    -4.829223    438.72621 
    4210    119.66489   -7.0281521            0   -5.2446605    464.86836 
    4220    232.45102    -6.937577            0   -3.4731153    627.55234 
    4230    136.59887   -6.7777805            0   -4.7419041    642.14579 
    4240    78.456574   -6.2986156            0   -5.1292949    668.57003 
    4250    195.79964   -6.6879001            0   -3.7696923    761.60798 
    4260    132.66343   -6.6318171            0   -4.6545947    712.85866 
    4270    72.937033    -5.965544            0   -4.8784868    700.26386 
    4280    209.38281   -7.1332044            0   -4.0125526    774.10971 
    4290    175.13167   -6.9927638            0   -4.3825925    726.34456 
    4300    105.02588   -6.8781065            0   -5.3127955    610.47938 
    4310    213.07306   -6.9408373            0   -3.7651857    602.83932 
    4320    178.06687   -7.2975338            0   -4.6436162    484.07941 
    4330    104.69553   -6.2901459            0   -4.7297585    413.63917 
    4340    189.13766   -6.8494612            0    -4.030544      429.805 
    4350     159.6238   -6.9077947            0   -4.5287536    380.39617 
    4360    108.91224   -6.4415871            0   -4.8183536    360.30005 
    4370    197.93154   -6.9617055            0   -4.0117239    431.77098 
    4380    158.95131   -6.7603811            0   -4.3913628    451.95799 
    4390    96.098008   -6.3537182            0   -4.9214687    482.83903 
    4400    181.99036   -6.7647206            0   -4.0523271    606.58666 
    4410    164.99971   -6.7987223            0   -4.3395582     661.6518 
    4420    107.99277   -6.3770418            0   -4.7675122    732.05644 
    4430    192.79824   -6.9301299            0   -4.0566551    881.15565 
    4440    183.07499   -7.3430281            0   -4.6144692    908.90241 
    4450    140.34333   -6.7375464            0   -4.6458624    878.73011 
    4460    215.83166   -7.2705348            0   -4.0537689    799.89976 
    4470    165.29881   -7.0358436            0   -4.5722219    609.46456 
    4480    112.46071    -6.206799            0    -4.530679    472.14049 
    4490    175.98346   -6.7647318            0   -4.1418655    403.38719 
    4500    130.62259   -6.3374345            0   -4.3906289    318.32124 
    4510    106.58297   -6.4206931            0   -4.8321751    283.61221 
    4520     206.3703   -6.8325527            0   -3.7567995    348.60816 
    4530     176.0848   -7.2494252            0   -4.6250485    340.84046 
    4540    143.72926   -6.8267316            0   -4.6845835    391.81551 
    4550    232.93382   -7.2466206            0   -3.7749632    527.42166 
    4560     177.7439   -7.2487877            0   -4.5996836    585.70795 
    4570     116.9346   -6.3330834            0   -4.5902843     722.6856 
    4580    199.04043   -6.7757133            0   -3.8092047    892.00218 
    4590    130.75339   -6.4835322            0   -4.5347771    911.81303 
    4600    92.500116   -6.2071216            0   -4.8284953    889.78498 
    4610    232.90337    -6.859936            0   -3.3887325    847.88274 
    4620    163.01786   -6.9915836            0   -4.5619572    643.17444 
    4630    124.59514   -6.7960178            0   -4.9390456    507.08065 
    4640    253.24629   -7.2048396            0   -3.4304442    482.07491 
    4650    155.24051   -6.8410441            0   -4.5273317    346.16254 
    4660    81.799001   -6.1875951            0   -4.9684587    285.30117 
    4670    216.08474   -6.4868941            0   -3.2663564     361.5344 
    4680    140.70649   -6.4728913            0   -4.3757947    339.23191 
    4690    68.488926   -6.0936672            0   -5.0729048    372.72029 
    4700    213.63253   -6.5718915            0   -3.3879015    549.82949 
    4710    166.64996   -6.4986733            0    -4.014914    626.28166 
    4720    102.07071   -6.7832255            0   -5.2619585     715.8345 
    4730    244.09249   -6.8666344            0   -3.2286676    938.99783 
    4740    190.68735   -7.1350182            0   -4.2930044    976.83175 
    4750    96.574767   -6.5668561            0   -5.1275009    943.42676 
    4760    265.11551   -6.9754626            0   -3.0241677    894.39607 
    4770    182.69428   -6.8554785            0   -4.1325938    659.49546 
    4780    58.994962   -6.1901611            0   -5.3108972    462.43698 
    4790    248.34279   -6.9791995            0    -3.277886    452.47439 
    4800    195.24747   -6.6517997            0   -3.7418216    351.74024 
    4810    56.574453   -6.2810792            0   -5.4378907    236.84617 
    4820    238.47167   -6.5795165            0   -3.0253227     328.2445 
    4830    202.41574   -6.7123261            0   -3.6955117    306.51366 
    4840    65.957838   -6.5385459            0    -5.555507    262.05146 
    4850    241.84814   -6.7295872            0   -3.1250703    446.39398 
    4860    204.33798   -6.3359729            0   -3.2905095    536.81837 
    4870    58.969461   -6.5838812            0   -5.7049974    572.64751 
    4880    262.33009   -7.1478789            0    -3.238098    804.78801 
    4890    238.24738   -6.8776874            0   -3.3268364    918.57863 
    4900    46.934858   -5.8537567            0   -5.1542372    936.49785 
    4910    244.81834   -7.1247025            0   -3.4759176    993.88121 
    4920    282.34596   -7.2256407            0   -3.0175423    898.19475 
    4930    56.822547   -6.6641189            0   -5.8172328     599.5189 
    4940    222.77124   -6.5696989            0   -3.2495051    533.99989 
    4950    269.29457    -6.819257            0   -2.8056773    438.05848 
    4960    64.736952   -6.3834838            0   -5.4186411    244.68757 
    4970    218.75538   -6.6278936            0   -3.3675525    287.60865 
    4980    259.76264   -6.7939413            0   -2.9224258    290.09144 
    4990    46.695048    -5.743603            0   -5.0476577    173.03825 
    5000    200.57662   -6.8660384            0   -3.8766344    254.85426 
    5010    309.29668   -7.0154386            0   -2.4056654    370.27816 
    5020     103.6434   -6.8560161            0   -5.3113097    321.53331 
    5030     192.7186   -6.4283473            0   -3.5560596    503.61789 
    5040    294.52475   -6.7579504            0   -2.3683388    722.24781 
    5050     133.6065   -6.9819894            0   -4.9907115    775.98332 
    5060    185.82139    -6.707779            0   -3.9382876    939.62999 
    5070     258.6365   -6.5847368            0   -2.7300055    1081.4404 
    5080    115.82647   -6.1531952            0   -4.4269117    952.12441 
    5090    227.55942    -7.348867            0   -3.9573099    813.53048 
    5100    304.16104     -6.96322            0   -2.4299886    712.64396 
    5110     104.1272   -6.4262424            0   -4.8743253    442.08298 
    5120    197.26371   -6.7014123            0    -3.761384    361.48942 
    5130    295.00388   -6.9542011            0   -2.5574484      345.514 
    5140    102.37769   -5.8497299            0   -4.3238877    196.25581 
    5150    146.71666   -6.1792734            0   -3.9926009    193.44161 
    5160    252.91616   -6.2265957            0   -2.4571204     276.2123 
    5170    131.28435   -6.1616943            0   -4.2050258    227.97467 
    5180    209.35656   -6.8756365            0   -3.7553758    315.07838 
    5190    293.52054   -7.1115494            0   -2.7369045    471.56649 
    5200    143.17268   -6.2608755            0   -4.1270227    542.47678 
    5210    223.28545   -7.2605863            0   -3.9327286    732.55722 
    5220    304.48967   -7.0807641            0   -2.5426348    1008.4109 
    5230    147.83603    -5.826698            0   -3.6233423    1075.2997 
    5240     176.7826   -6.5547877            0    -3.920011    1048.8883 
    5250    274.74204   -6.7565905            0   -2.6618214    983.52131 
    5260    195.93732   -7.0754033            0   -4.1551437    716.31012 
    5270    207.82919   -6.1966467            0     -3.09915     568.0764 
    5280    250.78988   -6.5843504            0   -2.8465653    459.36705 
    5290    157.84263   -6.1885152            0   -3.8360208    302.44686 
    5300    208.91625   -6.5425267            0   -3.4288284    256.76894 
    5310    250.20147   -6.2491407            0   -2.5201254    262.13086 
    5320    131.14263    -5.676421            0   -3.7218646    188.24937 
    5330    197.13444   -6.3644026            0   -3.4263011    232.75027 
    5340    277.88004   -6.6916342            0   -2.5500961    332.39657 
    5350    192.99379   -6.6699811            0    -3.793592    352.06035 
    5360    234.33605   -6.5345568            0   -3.0420006    506.09765 
    5370    284.89364   -6.5844393            0   -2.3383701    731.63809 
    5380    183.44235   -6.5546031            0   -3.8205691    859.52101 
    5390    232.90649   -6.6866444            0   -3.2153943     1059.533 
    5400    248.62539   -6.2706364            0    -2.565111    1180.5714 
    5410    142.66457   -5.7259585            0   -3.5996786    1027.2317 
    5420    303.24289   -7.3735795            0   -2.8540322    886.76559 
    5430    303.35129   -6.9770966            0   -2.4559338    719.29066 
    5440    155.11351   -6.2528309            0   -3.9410114     460.9556 
    5450    265.94823   -6.7873006            0   -2.8235949    395.83237 
    5460    278.11378   -6.1427574            0   -1.9977356    350.31481 
    5470    118.45267   -5.9608191            0   -4.1953946    197.69767 
    5480    239.05084   -6.1802092            0   -2.6173835    257.99626 
    5490    259.64329   -5.9569615            0   -2.0872248    286.31398 
    5500    98.992789   -5.1364308            0   -3.6610373    216.30505 
    5510    255.91139   -6.5689899            0   -2.7548737    327.65468 
    5520    340.16416   -6.8739883            0   -1.8041646    462.19254 
    5530    163.57337    -6.392179            0   -3.9542732    478.75674 
    5540    269.94248   -6.7191365            0   -2.6959002    724.37491 
    5550    352.95632   -6.5622301            0   -1.3017514    1000.4937 
    5560    158.94614   -6.4524164            0   -4.0834751    1006.8804 
    5570    231.67891   -6.1425262            0   -2.6895721    1132.2493 
    5580    346.66435   -6.6680378            0    -1.501335    1149.3932 
    5590    104.38861   -5.5882551            0    -4.032442    852.62229 
    5600    265.07763     -6.65322            0   -2.7024897     719.6073 
    5610     358.1172   -6.4986667            0   -1.1612699    606.54594 
    5620    93.148226   -5.6487324            0   -4.2604465    319.06239 
    5630    267.30155    -6.561128            0   -2.5772524    336.21409 
    5640     382.5816   -6.4695728            0  -0.76755736    373.17189 
    5650     111.2013   -5.4196991            0   -3.7623494    186.89867 
    5660    240.59788   -6.5599065            0   -2.9740235    242.98847 
    5670    382.30704   -5.9888651            0  -0.29094182    375.28256 
    5680    116.14554   -5.6533787            0   -3.9223397    242.73279 
    5690    248.95816    -6.593987            0    -2.883502    387.67959 
    5700    412.04335   -6.3071037            0  -0.16598888    631.22447 
    5710    121.61219   -5.6129003            0   -3.8003861    630.77172 
    5720    228.00154   -6.5149802            0   -3.1168338     918.6528 
    5730    403.50396   -6.1305716            0  -0.11672827    1252.9027 
    5740    131.36541   -5.1346756            0    -3.176799     1139.833 
    5750    199.26442   -7.2192466            0   -4.2493997    1025.9178 
    5760    444.15767   -6.0862244            0    0.5335238    1053.4363 
    5770    230.56347   -7.0380151            0   -3.6016856    664.53689 
    5780    211.61237    -6.554763            0   -3.4008816    505.47998 
    5790    458.98263   -6.3501985            0   0.49050169    552.13569 
    5800    218.23544   -6.1926199            0   -2.9400279    298.17374 
    5810    172.46139   -6.4677477            0   -3.8973745    209.50501 
    5820    431.48326   -5.6153181            0   0.81553008    378.56596 
    5830    171.36766   -5.0856953            0   -2.5316231    207.35454 
    5840    131.31503   -6.1337015            0   -4.1765757     166.9877 
    5850    475.83936   -6.0649312            0    1.0270025    432.24447 
    5860    272.77382   -6.4604241            0   -2.3949894     333.3625 
    5870    175.63595    -6.615835            0   -3.9981479    361.29305 
    5880       498.01   -6.4603088            0   0.96205725    721.52716 
    5890    295.57945   -6.7354479            0    -2.330117    752.23652 
    5900    138.02949   -6.4744416            0   -4.4172432    873.87597 
    5910    511.90138   -6.4246317            0    1.2047722    1267.9568 
    5920    224.13632   -5.2803255            0   -1.9397865    1127.5667 
    5930    112.93546   -6.1172579            0   -4.4340621    891.57665 
    5940     515.3275   -6.7372684            0   0.94319857    913.11993 
    5950    277.28285   -5.7973588            0   -1.6647212    596.01604 
    5960    149.40346   -6.6800492            0   -4.4533324    363.79732 
    5970    492.84643   -5.9080957            0    1.4373122    523.17395 
    5980    298.51543   -5.9967216            0   -1.5476326    322.71963 
    5990    135.85259   -6.6157253            0   -4.5909715     158.4384 
    6000    446.74416    -5.189447            0    1.4688504     388.8776 
    6010    260.44954   -4.6870165            0  -0.80526355     281.6308 
    6020    110.35123   -6.2684358            0   -4.6237556    176.56057 
    6030    480.90456   -6.2903257            0   0.87709992    496.24395 
    6040    326.48422   -5.4168043            0  -0.55086709    535.41072 
    6050    126.56436     -6.52404            0   -4.6377185    532.89711 
    6060    505.35876   -6.2611952            0    1.2706972    967.07014 
    6070    407.36578   -6.2588338            0  -0.18743373    1080.9047 
    6080    105.21301   -6.7547754            0   -5.1866754     991.5294 
    6090    416.54435   -5.0804111            0    1.1277867    1212.2947 
    6100       422.84   -6.2378627            0  0.064165901     984.5057 
    6110    157.00369   -6.8273306            0   -4.4873397    586.09745 
    6120    472.67054    -5.946111            0    1.0985946    647.81486 
    6130    407.41711   -6.0751752            0 -0.0030100927    484.74156 
    6140    142.01967   -6.2797686            0   -4.1631002    217.30753 
    6150    493.96303   -6.2591295            0    1.1029203    397.38521 
    6160    417.29294   -5.4828754            0   0.73647951    335.80294 
    6170    78.074753   -5.6053873            0   -4.4417573    90.446273 
    6180    402.93957   -5.0100219            0   0.99540974    328.40954 
    6190    449.15542   -5.6660707            0    1.0281643    367.30335 
    6200    168.60351   -6.9289148            0   -4.4160395    193.41891 
    6210     472.7301   -5.9982616            0    1.0473316    493.07074 
    6220    454.55911   -6.4703456            0   0.30442611    576.24265 
    6230    147.76621   -5.8688171            0    -3.666502    522.34457 
    6240    507.85091   -7.1292838            0   0.43975176    887.48969 
    6250    478.45611   -5.6292072            0    1.5017266    1119.0279 
    6260    135.97738   -6.3097126            0   -4.2830988    985.27561 
    6270    466.50117   -5.8647817            0    1.0879752    1134.2494 
    6280    460.20582   -5.6704737            0    1.1884569    984.25735 
    6290    262.52285   -7.6707224            0   -3.7580686    601.58859 
    6300    479.70289   -5.9704327            0    1.1790833    643.56358 
    6310    419.17911    -5.602112            0   0.64535445    502.70468 
    6320    222.09033   -6.2440775            0    -2.934032     260.9093 
    6330    470.63044   -6.1322837            0   0.88201598    370.01141 
    6340    442.01278   -5.3109325            0    1.2768481    342.67236 
    6350    175.78495   -6.0194409            0   -3.3995332    131.61137 
    6360    399.02509   -4.9279512            0    1.0191388    313.16514 
    6370    406.64995   -4.9976493            0     1.063082    339.41951 
    6380    220.66934     -6.45635            0   -3.1674831    199.72232 
    6390    468.64394   -5.9374388            0    1.0472541    421.39549 
    6400     442.9827    -5.465958            0    1.1362784    491.34426 
    6410    237.37828   -6.0467785            0   -2.5088807    447.10069 
    6420    469.25187   -5.7711692            0    1.2225842    798.12448 
    6430    481.58004   -6.6461437            0   0.53134948    1049.6731 
    6440    332.00907   -7.5523964            0   -2.6041165    1099.7069 
    6450    470.19919   -5.4104735            0    1.5973989    1268.7775 
    6460    413.79847   -5.2840925            0   0.88318073    1128.7833 
    6470    307.83737   -6.7159435            0   -2.1279199    844.42306 
    6480    520.72854   -6.3515221            0    1.4094423    861.43309 
    6490    367.79687   -5.4285845            0  0.053078534    656.64501 
    6500    262.36211   -5.7632141            0   -1.8529559    434.60429 
    6510    533.48236   -5.8670489            0     2.083999    510.04408 
    6520    385.17566   -5.9471257            0  -0.20644834    352.49584 
    6530    277.58941   -5.8129091            0   -1.6757026    249.24391 
    6540    535.78465   -5.6413168            0    2.3440446    418.55845 
    6550    364.04129   -5.4199662            0 0.0057235062    313.07323 
    6560    275.14834   -5.6809787            0    -1.580154    248.88535 
    6570    535.20633   -5.4342207            0    2.5425213    448.04504 
    6580    351.13555   -5.4671319            0  -0.23379007    368.57439 
    6590    289.10843   -5.4897061            0   -1.1808194    394.31434 
    6600     595.7862   -5.8612016            0    3.0184259    718.39744 
    6610    398.34495   -6.6925343            0  -0.75558113    750.93006 
    6620    378.14639    -7.133372            0   -1.4974592    873.97795 
    6630    637.87557   -6.2632266            0    3.2437029    1222.1592 
    6640    287.91462   -5.0769472            0  -0.78585323     1121.472 
    6650    401.38054   -7.0740592            0   -1.0918635    1103.9971 
    6660    633.82195   -5.6369912            0     3.809523     1207.045 
    6670    265.76556   -5.7721413            0    -1.811158    773.60297 
    6680    395.97667   -6.2921628            0  -0.39050657    612.72482 
    6690    632.35735   -5.6215897            0     3.803096    644.16421 
    6700     265.9914   -5.4251678            0   -1.4608186    320.75699 
    6710    394.39975   -6.6101003            0  -0.73194664     322.3001 
    6720    661.12078    -5.287935            0    4.5654423    513.29637 
    6730    250.47325   -5.1336894            0   -1.4006235    224.85361 
    6740    382.96701   -6.6206619            0  -0.91290231    262.13401 
    6750    697.66389   -5.6250736            0    4.7729441     511.4645 
    6760    233.11969   -5.5093478            0   -2.0349203    227.65754 
    6770    377.73763   -6.0023894            0  -0.37256879    337.62906 
    6780    712.00896   -5.9293429            0    4.6824745    616.78944 
    6790    241.68431   -5.1726766            0   -1.5706016    400.40706 
    6800     382.9137   -6.8358995            0   -1.1289344    573.82201 
    6810    716.74994   -5.7605442            0     4.921933    1064.9166 
    6820    267.33172   -5.7994241            0   -1.8150987    1046.1274 
    6830    418.44141   -6.9686134            0  -0.73214157    1240.0118 
    6840    716.97271    -5.764653            0    4.9211443    1489.4547 
    6850    370.03856    -6.731382            0   -1.2163087    1018.2195 
    6860    403.67919   -6.0510552            0 -0.034600216     778.6201 
    6870    761.17979   -6.3408498            0    5.0038119    820.64037 
    6880    270.27424   -6.0208423            0   -1.9926615     357.9627 
    6890    353.72661    -5.236449            0  0.035510208    336.26857 
    6900    692.00436   -5.7629952            0    4.5506725    503.17154 
    6910     276.2432   -5.2785723            0   -1.1614298    204.85205 
    6920    347.87362    -5.037666            0   0.14705994    236.09174 
    6930    656.05163   -5.5060867            0    4.2717397    429.08235 
    6940    290.81801   -5.4282921            0   -1.0939259    182.79176 
    6950    356.87278   -5.3557535            0 -0.036903636    234.64368 
    6960    603.14327   -4.5635246            0     4.425753    444.11759 
    6970    291.59855   -5.3079741            0  -0.96197468    241.41522 
    6980    427.18222   -6.0672731            0   0.29947219    355.20953 
    6990    643.77411   -5.3872184            0    4.2076232    620.16349 
    7000    327.27622   -5.9804627            0   -1.1027215    559.12497 
    7010    506.49513   -6.5784833            0   0.97034566     908.1648 
    7020    629.59258   -5.9271757            0    3.4563037    1325.8842 
    7030    341.79882    -5.119764            0 -0.025577269    1356.9913 
    7040    431.22025   -5.6403945            0   0.78653373    1395.1541 
    7050    655.43354    -6.524178            0    3.2444364    1351.5162 
    7060    310.32551   -5.9402116            0   -1.3151047     840.4581 
    7070    490.89536   -5.5702149            0    1.7461143    691.42749 
    7080    618.92198   -6.8220246            0    2.4024196    587.62318 
    7090    286.13727   -5.1729222            0  -0.90831793    308.86645 
    7100    484.61555   -5.0794719            0    2.1432626    384.42581 
    7110    558.62487   -5.7749831            0      2.55079    381.41134 
    7120    288.72353   -5.0545498            0  -0.75139981    191.00063 
    7130     472.3777   -4.3545478            0    2.6857932    317.22207 
    7140    466.28854   -4.8977384            0    2.0518494    297.45266 
    7150    286.74454   -4.8273215            0  -0.55366651    181.21028 
    7160    527.72913   -5.0734679            0    2.7918336    351.66065 
    7170    483.08143   -5.0470024            0    2.1528675    353.52649 
    7180    316.03569   -5.4682079            0  -0.75799607    269.54998 
    7190    639.55072    -6.823394            0    2.7085021    515.86627 
    7200    508.78572   -5.8083341            0    1.7746338    564.02913 
    7210    333.43879    -6.074479            0   -1.1048905    576.49305 
    7220    650.68979   -6.2122907            0    3.4856226    971.34996 
    7230    460.51053    -5.901283            0    0.9621891    1138.6044 
    7240    308.54185   -5.5613979            0  -0.96287469    1313.5397 
    7250    609.06184   -5.2166444            0     3.860844    1553.4326 
    7260     527.1389   -7.1617671            0   0.69473745    1167.6849 
    7270    343.21014   -5.7603141            0   -0.6450929    771.03065 
    7280    713.25276    -6.357741            0    4.2726139    777.32551 
    7290    516.69034   -7.1600245            0   0.54075431    478.31602 
    7300    282.69151   -5.3118517            0   -1.0986032    269.85668 
    7310    644.47635   -4.8186957            0    4.7866123    472.56621 
    7320    424.73315   -5.4539693            0   0.87627489    281.21111 
    7330    204.62892   -4.6914616            0   -1.6416619    134.79499 
    7340    614.94316   -4.7210925            0    4.4440513    407.00689 
    7350    416.18986    -5.360264            0   0.84265052    253.11841 
    7360    221.89926   -4.8757633            0   -1.5685656    132.93944 
    7370    634.38085   -4.8802503            0    4.5745938     424.0593 
    7380    402.58133   -5.2961578            0   0.70393458    280.34139 
    7390     245.2975   -5.0761409            0   -1.4202147    215.51683 
    7400    740.15266   -6.5340566            0    4.4972158    582.20325 
    7410    481.12847   -5.8860115            0    1.2847514    542.05867 
    7420     273.8386   -6.1838857            0   -2.1025814    574.09236 
    7430    703.73749   -5.6179894            0    4.8705495    1171.0378 
    7440    458.66227    -5.701636            0    1.1342895    1296.2201 
    7450    231.95239   -5.2464127            0   -1.7893827    1243.5921 
    7460    646.67841   -4.6445349            0    4.9935926    1435.4354 
    7470    447.07323   -7.0848963            0  -0.42169438    1001.8955 
    7480    247.72798   -5.3721469            0   -1.6799966    684.13125 
    7490     757.0827   -6.6770878            0    4.6065109    812.14694 
    7500    431.78115   -5.5915747            0   0.84371321    486.49844 
    7510    166.02958   -4.9972514            0   -2.5227381    227.55254 
    7520    719.98027   -5.9829356            0    4.7476865    520.50393 
    7530    433.14357   -6.0333717            0   0.42222177    290.53762 
    7540     114.5837   -3.9268936            0   -2.2191323    107.84981 
    7550    628.56319   -4.6872228            0    4.6809146    433.87916 
    7560     472.4493   -5.9573019            0    1.0841062    297.03161 
    7570    170.91185   -4.6273603            0   -2.0800815    135.03451 
    7580     613.1581   -4.6804684            0    4.4580707    459.42161 
    7590    467.39743   -5.9659667            0    1.0001481    361.36181 
    7600     256.2805   -6.0378115            0   -2.2181941    276.75705 
    7610    664.54789    -5.702549            0    4.2019061    678.33033 
    7620    506.20042   -6.3007185            0     1.243718    725.85684 
    7630    223.62518   -5.8592757            0   -2.5263548    761.97794 
    7640    660.02283   -6.4345914            0    3.4024221    1287.3578 
    7650    454.22483   -6.1036712            0    0.6661184    1288.6025 
    7660    125.71291   -4.1035947            0   -2.2299632    1133.5673 
    7670    708.38472   -6.5331672            0    4.0246343    1307.8747 
    7680     441.2603   -6.1316633            0   0.44490243    903.13124 
    7690    218.85781   -5.2767399            0   -2.0148721    541.57782 
    7700    698.68292   -6.7898739            0    3.6233315     662.6147 
    7710    439.83808   -5.6167134            0   0.93865548    409.95219 
    7720    179.67078   -4.3583068            0   -1.6804844     199.7083 
    7730    587.48678   -5.6485817            0    3.1073508    406.77637 
    7740    389.33271   -5.0038072            0   0.79882715    268.17564 
    7750    129.68791   -3.9974107            0   -2.0645356    115.43563 
    7760    563.62009   -5.1899634            0    3.2102588    393.96016 
    7770    457.31062   -6.2253265            0   0.59045393    319.48937 
    7780     190.2081   -4.8065534            0   -1.9716823    217.32193 
    7790    546.55705   -5.4878159            0    2.6580979     515.0075 
    7800    493.08343   -6.4964157            0   0.85252458    540.75194 
    7810    245.47889   -5.2897528            0   -1.6311232    566.66293 
    7820    580.49875   -6.1646862            0    2.4870963    1007.4525 
    7830    397.68895   -6.0501631            0   -0.1229869    1146.7933 
    7840    219.26334   -4.0707167            0  -0.80280484    1266.6019 
    7850    637.22228   -7.0277861            0    2.4694069    1381.4635 
    7860    377.44926   -5.4519363            0    0.1735865    1007.6858 
    7870    314.55434   -5.9721242            0   -1.2839905    690.12018 
    7880    594.08853   -6.4712099            0    2.3831153    667.82962 
    7890     357.7923   -5.5943918            0  -0.26183734    388.36672 
    7900    292.98976   -5.0560642            0  -0.68933007    285.95549 
    7910    520.52505   -5.3791196            0     2.378812    395.50741 
    7920    281.31781   -5.1134883            0  -0.92071354    217.02942 
    7930    245.88944   -4.3419818            0  -0.67723326    206.52201 
    7940    540.22862   -6.1752562            0    1.8763383    365.89594 
    7950    331.43605   -5.3574505            0  -0.41771105    257.28647 
    7960     259.7654   -4.8373135            0  -0.96575689     258.2464 
    7970    548.33951   -5.9731021            0    2.1993775    477.57248 
    7980    394.54431   -6.6422905            0  -0.76198224    421.13121 
    7990    343.96524   -5.6086523            0  -0.48217708    538.36788 
    8000    577.62812   -6.2696743            0    2.3393242    866.74374 
    8010    282.49747   -6.2641642            0   -2.0538077    897.18192 
    8020    320.66416   -4.8014897            0 -0.022294952    1209.1301 
    8030    611.94768   -6.9707877            0    2.1497112    1379.5857 
    8040    235.88983    -5.429819            0   -1.9141051    997.99499 
    8050    379.95236   -6.3708985            0  -0.70806945     872.3572 
    8060    563.18953   -6.1290003            0    2.2648048    791.18595 
    8070    244.38836   -6.3059446            0   -2.6635681    394.92175 
    8080    386.30512   -5.8608335            0   -0.1033226    402.05391 
    8090    542.86265   -5.6449138            0    2.4459385    453.42391 
    8100    174.17254   -5.2770284            0    -2.681152     168.8006 
    8110    316.58619   -5.0381074            0  -0.31969085    253.86376 
    8120    567.72614   -5.5923699            0    2.8690491    400.06977 
    8130    183.34341   -5.5769655            0   -2.8444061    138.93927 
    8140    290.14394   -5.2289632            0  -0.90464333    248.61173 
    8150    566.21539    -5.580289            0    2.8586135    466.35715 
    8160    218.65491   -6.0784399            0   -2.8195962    271.14119 
    8170    369.60526   -6.0927196            0  -0.58410429    479.28568 
    8180    602.84421   -6.4282823            0    2.5565381    777.51066 
    8190    172.07759   -5.9153722            0   -3.3507192    703.32736 
    8200    317.79659   -5.9580485            0   -1.2215921    1099.6974 
    8210    565.45184   -5.3650845            0    3.0624381    1548.3935 
    8220    163.05683   -6.1665959            0   -3.7363887    1270.7807 
    8230    297.60191   -5.5352528            0    -1.099779    1160.8688 
    8240    601.53014   -6.4038484            0     2.561387    983.99346 
    8250    234.72816   -7.1231303            0     -3.62473    444.48498 
    8260    307.42644   -5.3772755            0  -0.79537642    407.51305 
    8270    550.19552   -5.4013321            0    2.7988096    476.31508 
    8280    163.90058   -6.0194176            0   -3.5766352    139.88078 
    8290    273.56373    -5.243183            0   -1.1659755    210.92965 
    8300    542.65078   -5.3866746            0    2.7010199    373.27092 
    8310    172.79011    -5.639307            0   -3.0640345    110.30419 
    8320    226.40894   -5.1540309            0   -1.7796206    172.45088 
    8330    507.83327   -5.3277347            0    2.2410378    381.59865 
    8340     216.1442   -6.2978902            0   -3.0764661     199.2402 
    8350    288.41648   -6.2006132            0   -1.9020395    342.66623 
    8360    558.23436    -6.051277            0     2.268676     663.6812 
    8370    288.63634   -7.8873105            0     -3.58546    652.79727 
    8380    278.52293   -5.5420941            0   -1.3909743    1097.2317 
    8390     511.3779   -6.1585536            0    1.4630483    1551.7028 
    8400    204.48821   -6.1113435            0   -3.0636409    1409.5811 
    8410    281.13186   -6.0266643            0   -1.8366608    1263.9695 
    8420    538.92001   -6.5485646            0    1.4835264     1017.398 
    8430    251.98228   -6.8160551            0   -3.0604985    518.65365 
    8440    339.68938   -6.2668121            0   -1.2040646    425.88771 
    8450    455.61602   -5.5122961            0    1.2782279    415.95941 
    8460    188.25259   -6.0639278            0   -3.2582018    163.88082 
    8470    289.46077    -5.584316            0   -1.2701781    221.35888 
    8480      404.793    -5.470756            0   0.56229921    289.81595 
    8490     150.5419   -5.0160619            0    -2.772378     130.4809 
    8500    259.05107   -5.4618754            0   -1.6009652    210.68225 
    8510    417.50583   -5.6619908            0   0.56053714    337.05925 
    8520    184.39322   -5.7675459            0   -3.0193402    235.38559 
    8530    301.40309   -5.9849251            0   -1.4927982    419.33717 
    8540     465.6697    -6.635087            0   0.30527767    675.37703 
    8550    226.09623   -6.6409338            0   -3.2711842    775.26289 
    8560    349.35011   -6.2240646            0    -1.017333    1223.8565 
    8570    407.60192   -5.8753428            0   0.19957669    1523.9635 
    8580     204.0649   -6.3642725            0    -3.322879    1353.4879 
    8590    350.59177   -6.2763225            0   -1.0510852    1137.9149 
    8600    407.89718   -6.2907741            0  -0.21145412    795.23704 
    8610    198.32613   -6.7729851            0   -3.8171225    410.75022 
    8620    325.28387   -5.5992877            0  -0.75124058    407.27548 
    8630    383.90083   -6.1114688            0  -0.38979146    365.95671 
    8640    177.00875   -6.1203122            0   -3.4821649    193.28987 
    8650     306.5934   -5.8025104            0   -1.2330269    273.82911 
    8660     368.8343   -5.6854528            0  -0.18832788    306.59979 
    8670    169.70263   -6.6901153            0   -4.1608587    157.33699 
    8680    315.95939   -5.4566938            0  -0.74761912    321.93677 
    8690    374.83594   -5.9395798            0  -0.35300603    395.30942 
    8700    188.19743   -6.8633797            0   -4.0584756    324.91696 
    8710    342.59024    -5.836984            0  -0.73100186    600.02208 
    8720    427.58604   -6.7111489            0  -0.33838505    855.81109 
    8730    158.78461   -6.3328001            0   -3.9662663    1018.8302 
    8740     299.1706    -5.867227            0   -1.4083733    1351.7251 
    8750    400.75373   -6.0936175            0  -0.12076371    1319.4242 
    8760    130.49461   -6.7118225            0   -4.7669242    872.93753 
    8770    316.36919   -5.5780727            0  -0.86289038    780.74023 
    8780    404.87269   -6.2612093            0  -0.22696643     641.6594 
    8790    145.95469   -6.7525185            0   -4.5772025    346.03211 
    8800    318.45591   -6.3601573            0   -1.6138744    412.84836 
    8810    428.35888   -6.4082635            0 -0.023981275    439.30616 
    8820    158.26811   -7.2726737            0   -4.9138378    211.67535 
    8830    323.42152   -6.1001327            0   -1.2798421    344.49726 
    8840    400.35134    -6.039395            0 -0.072538519    405.58808 
    8850    100.74758   -6.2823366            0   -4.7807896    230.14624 
    8860    278.64049   -5.6726657            0   -1.5197938    435.34837 
    8870    421.62571   -6.1284669            0   0.15546387    639.98171 
    8880     139.8992   -6.9809506            0   -4.8958859    616.91033 
    8890    277.23992    -6.066559            0   -1.9345612      974.572 
    8900    412.41961   -6.1216632            0  0.025059281    1231.3869 
    8910    153.32303    -7.560683            0   -5.2755488    1030.5691 
    8920    305.23686   -5.9987008            0   -1.4494353    1047.2274 
    8930    432.03212   -6.7072531            0  -0.26822459    925.49235 
    8940    143.73539   -7.1921076            0    -5.049868    543.63707 
    8950    281.52758    -6.487608            0   -2.2917069    515.92532 
    8960    397.51146   -5.8320047            0  0.092526007    513.51372 
    8970    83.543839   -6.1991374            0   -4.9539958    232.02845 
    8980    232.47957   -5.7376471            0   -2.2727599    316.79947 
    8990    421.27853   -6.3423818            0 -0.063625406    426.04373 
    9000    136.90166   -7.1072709            0   -5.0668817    225.83609 
    9010    244.42544   -5.8592444            0   -2.2163154    360.42469 
    9020    417.67614   -6.1358523            0  0.089213875    527.68644 
    9030    149.75871   -7.2010615            0   -4.9690501    416.32589 
    9040    265.71076   -6.5555538            0   -2.5953873    680.10137 
    9050    399.59209   -6.1433703            0  -0.18782967    1007.5867 
    9060    95.054205   -5.9251491            0   -4.5084564    986.00281 
    9070    238.51399   -6.3650423            0   -2.8102177    1059.9512 
    9080    411.99903   -6.3789576            0  -0.23850336    1064.2724 
    9090     108.8575   -6.7394223            0   -5.1170046    693.20951 
    9100    229.40212   -6.1494058            0   -2.7303851    641.02365 
    9110    444.90684   -6.7440657            0  -0.11315183    648.63651 
    9120    147.13681   -7.0790693            0   -4.8861349    341.42165 
    9130    168.40073   -5.5658721            0   -3.0560191    329.19002 
    9140    363.84845   -6.1561509            0   -0.7333354    406.60231 
    9150    139.95254   -6.4281344            0   -4.3422747    227.06931 
    9160    182.22056    -5.916386            0   -3.2005616    272.48977 
    9170    378.55504   -5.9811534            0  -0.33914999    436.59242 
    9180    141.21055   -6.7339953            0   -4.6293861     300.9727 
    9190    177.13849   -5.8541581            0   -3.2140772    417.28405 
    9200    415.75613   -6.6603451            0  -0.46389492    666.62673 
    9210    195.10782   -7.4484721            0   -4.5405753    641.77578 
    9220    163.03638   -5.9178554            0   -3.4879529    836.72942 
    9230    379.72525   -6.7426622            0   -1.0832181    1073.0207 
    9240    199.90056   -7.2372966            0   -4.2579685    903.79811 
    9250    151.14728   -5.6132377            0   -3.3605311     825.3695 
    9260    346.44451   -6.0923756            0  -0.92894918    845.76094 
    9270    195.49329   -7.4474005            0   -4.5337587    598.59353 
    9280    200.40963    -6.546571            0   -3.5596558    536.30981 
    9290    365.30146   -6.7334124            0   -1.2889411    573.98146 
    9300     189.2257   -6.6902386            0   -3.8700093    390.93339 
    9310      198.636   -6.5968295            0   -3.6363486    366.49597 
    9320    379.32791   -6.8458811            0   -1.1923588    472.86286 
    9330    200.04193   -7.2648049            0     -4.28337    331.14482 
    9340    151.10086   -5.5585446            0   -3.3065298    363.88416 
    9350    322.56671   -6.1511637            0   -1.3436133    516.41412 
    9360     209.2077   -7.3500846            0   -4.2320425    492.49367 
    9370    232.31818   -6.8777753            0   -3.4152936    662.43069 
    9380    331.71429   -6.7096285            0    -1.765742    899.02628 
    9390    175.76808   -6.4423159            0   -3.8226596    874.86243 
    9400    226.90681   -7.1352511            0   -3.7534205    887.33617 
    9410    313.34903   -6.1983515            0   -1.5281818    921.06785 
    9420    160.74101    -7.180918            0   -4.7852259    654.98243 
    9430     182.3352   -5.7869813            0   -3.0694483    591.38933 
    9440     318.8432   -6.6604174            0   -1.9083623    563.37788 
    9450    193.02969   -7.0227706            0   -4.1458464     388.5653 
    9460    184.61813    -6.316831            0   -3.5652731    363.97202 
    9470    283.10902   -6.1066249            0   -1.8871539    412.80768 
    9480    166.62216   -6.5458995            0   -4.0625544     299.5744 
    9490    204.44987   -6.5091847            0   -3.4620536      331.784 
    9500    312.46743   -6.4052777            0   -1.7482475    439.42578 
    9510    133.64443   -6.5389275            0   -4.5470841    356.27581 
    9520    156.14912   -5.4401675            0   -3.1129131    481.55296 
    9530    323.66261   -6.6868968            0   -1.8630129    655.22926 
    9540    179.04557   -7.2854329            0   -4.6169287    634.67716 
    9550    181.42929   -6.4686064            0   -3.7645752    788.57921 
    9560    304.42553   -6.4204239            0   -1.8832504    943.77845 
    9570    142.93437    -6.880052            0   -4.7497509    784.47405 
    9580    205.76182   -6.3439069            0   -3.2772223    765.87286 
    9590     312.3482   -6.6244445            0   -1.9691911    724.20983 
    9600    91.270922   -6.2464542            0   -4.8861478    486.29915 
    9610    164.28717   -5.8777825            0   -3.4292383    491.22112 
    9620    346.09273   -6.6948521            0   -1.5366687    556.13913 
    9630    138.91571   -6.9664016            0   -4.8959949    385.36408 
    9640    158.56551   -6.1233157            0   -3.7600473    430.57534 
    9650    323.05083   -6.4103157            0   -1.5955498    534.31411 
    9660     151.9499   -7.1917005            0   -4.9270316    394.63231 
    9670    176.96541   -6.0525713            0   -3.4150698    487.76979 
    9680    300.52597    -6.225866            0   -1.7468119    615.54646 
    9690    99.957834   -6.4953294            0   -5.0055529    518.68394 
    9700     162.7037   -6.3325838            0   -3.9076397    647.05915 
    9710    354.14947   -6.6506625            0   -1.3724009    850.02314 
    9720    104.81546   -6.4950657            0   -4.9328907    740.78824 
    9730    136.00482     -6.10541            0   -4.0783874    785.52179 
    9740    362.45643   -7.1185298            0    -1.716461    820.97759 
    9750    142.47325   -7.1856225            0   -5.0621941    552.00384 
    9760    128.76591   -5.6731265            0   -3.7539929    523.85663 
    9770    320.54258   -6.2137302            0   -1.4363475    578.95878 
    9780    142.88275   -7.1253014            0   -4.9957697    392.98504 
    9790    171.76494   -6.6761944            0   -4.1162011      423.589 
    9800    328.60785   -6.3856452            0   -1.4880573    534.07557 
    9810    105.82828   -6.0125294            0   -4.4352594     393.8157 
    9820    144.22576    -6.596717            0    -4.447169    434.61248 
    9830    352.96485   -6.7927667            0   -1.5321609    599.60262 
    9840    139.05494   -6.8668821            0   -4.7944003    495.60699 
    9850    117.72034   -6.0224329            0    -4.267923    581.51188 
    9860    347.35175   -6.5776992            0   -1.4007512    776.72365 
    9870    184.53055   -7.7190711            0   -4.9688185     686.3017 
    9880    140.43074    -6.546883            0   -4.4538961     745.7881 
    9890    308.73452   -6.5381833            0   -1.9367885    824.88069 
    9900    152.81057   -6.5440314            0   -4.2665349     634.8603 
    9910    137.68965   -6.7355548            0   -4.6834214     548.9063 
    9920    319.12386   -6.2959183            0   -1.5396802    617.63271 
    9930     135.2068   -6.7746656            0   -4.7595367    444.54162 
    9940     131.8424   -6.4115589            0   -4.4465731    446.41843 
    9950     365.6831   -7.1158664            0   -1.6657071    578.50983 
    9960    175.65612   -7.0040129            0   -4.3860253    459.30414 
    9970    107.01293   -6.3026522            0   -4.7077262    456.24813 
    9980    326.42743   -6.8214129            0    -1.956322    585.78847 
    9990    174.35307    -6.892136            0   -4.2935691    493.01865 
   10000    93.425833   -5.9377929            0   -4.5453696     516.1475 
   10010     300.9004   -6.4047867            0    -1.920152    707.89924 
   10020    188.12558    -7.373443            0   -4.5696099    705.33454 
   10030    145.58369   -6.7830767            0   -4.6132901    799.04328 
   10040    319.21163   -6.9690462            0      -2.2115    920.49696 
   10050    159.55017   -6.5470205            0   -4.1690768    766.69528 
   10060    127.49226   -6.5727637            0   -4.6726126    664.49073 
   10070    303.89889   -6.5623972            0   -2.0330729    669.47639 
   10080    150.12026   -6.9491525            0   -4.7117525    478.62577 
   10090    102.25703   -5.6048667            0   -4.0808228    432.82292 
   10100    276.89912    -6.414295            0   -2.2873766    474.32907 
   10110    185.54999   -7.0919485            0   -4.3265021    370.60451 
   10120    153.44735   -6.6357277            0   -4.3487407    367.97481 
   10130    270.89139   -6.3028107            0   -2.2654318    471.52002 
   10140     144.9401   -6.1874665            0    -4.027272    426.67401 
   10150    127.29551   -6.5272214            0   -4.6300028    453.73568 
   10160    275.27939   -6.3126173            0   -2.2098395    615.49884 
   10170    153.92319   -7.0518909            0    -4.757812    615.37566 
   10180    109.05224   -5.5423705            0   -3.9170504    771.85219 
   10190    275.25343   -6.7460858            0   -2.6436949     948.5356 
   10200    183.42766   -7.1511749            0   -4.4173598    926.17267 
   10210    126.38934   -6.4222399            0   -4.5385267    870.57078 
   10220    275.03478   -6.5133009            0   -2.4141686     803.9941 
   10230    163.72715   -7.0121825            0   -4.5719848    563.58818 
   10240    138.77084   -6.1419864            0   -4.0737388    452.92204 
   10250    256.73331   -6.1552722            0    -2.328906    455.04444 
   10260    127.46658   -6.4573088            0   -4.5575405    320.67324 
   10270    138.38289   -6.1637115            0    -4.101246    319.51874 
[...]
   17510    347.78256   -6.4302299            0   -1.2468612    520.41391 
   17520    123.05986    -5.471518            0   -3.6374278     341.3836 
   17530     230.5736   -6.1671502            0   -2.7306696     374.5539 
   17540    337.28108   -6.0051784            0  -0.97832421    473.57402 
   17550    100.88591   -5.8808963            0   -4.3772877    383.56939 
   17560    234.66647   -5.8518112            0   -2.3543303     538.7221 
   17570    382.06361   -7.0690232            0    -1.374728     674.0012 
   17580    143.24072   -5.8429169            0     -3.70805     654.1255 
   17590    278.98562    -6.952893            0   -2.7948772    792.66064 
   17600    367.56158   -6.4488806            0  -0.97072441    900.28045 
   17610    113.46978    -5.608039            0   -3.9168796    780.16711 
   17620    293.35541   -6.5700592            0   -2.1978754    839.42249 
   17630    316.75099   -5.5102669            0  -0.78939429    841.84489 
   17640    113.25111    -6.139272            0   -4.4513718    608.25686 
   17650    331.28786    -6.857198            0   -1.9196671    617.42594 
   17660    367.04716   -6.4308298            0  -0.96034044    570.27169 
   17670    124.07848   -5.6884969            0    -3.839225    381.24791 
   17680    291.56632    -6.523642            0   -2.1781229    439.11733 
   17690    381.97747   -6.4305466            0  -0.73753511    501.03797 
   17700    126.34546   -6.4839108            0   -4.6008517    371.39546 
   17710     272.7887    -5.829037            0   -1.7633806    531.63154 
   17720    372.76228   -6.2080526            0  -0.65238487    648.41893 
   17730     127.9315   -6.2720436            0   -4.3653461    552.79085 
   17740    294.45897   -6.4030122            0   -2.0143809    727.35436 
   17750     424.9896   -6.6765766            0  -0.34251023    891.63397 
   17760    89.969803   -5.5818822            0   -4.2409677    786.63741 
   17770    330.94017   -6.6802994            0   -1.7479505    890.02632 
   17780    457.11598   -7.4038839            0  -0.59100438    899.76879 
   17790    106.38693   -6.1728066            0   -4.5872104     644.9157 
   17800    356.92366   -6.6140655            0   -1.2944573    676.28579 
   17810    421.06095   -6.5447451            0   -0.2692315    613.94679 
   17820    111.16852   -5.8059273            0   -4.1490661    351.01816 
   17830    296.28851   -6.4001885            0   -1.9842897    419.76236 
   17840    368.93986   -5.5709475            0 -0.072249279    500.89314 
   17850     120.1155   -6.3792532            0   -4.5890457    349.11779 
   17860    351.82664   -6.6410796            0   -1.3974378    541.24571 
   17870    402.65491   -6.1516149            0  -0.15042587    666.88185 
   17880    172.43008   -6.6833252            0   -4.1134187    572.11174 
   17890    308.10172   -6.1872959            0   -1.5953324    732.66938 
   17900    399.87645   -5.9421374            0  0.017641266     864.4359 
   17910    146.49909   -6.1425883            0   -3.9591585    730.11148 
   17920     287.3288   -5.8153673            0   -1.5330045    806.36048 
   17930    423.17556   -6.5730511            0  -0.26602124    828.58073 
   17940    175.85247   -6.1383828            0   -3.5174688    611.89304 
   17950    369.30749   -6.6904972            0   -1.1863197    638.42722 
   17960    457.35944   -6.9953165            0  -0.17880836    639.44433 
   17970    114.78848   -5.7368859            0   -4.0260725    389.80751 
   17980    339.82647   -6.4545063            0   -1.3897155    462.80055 
   17990     407.6075   -6.4316008            0  -0.35659812    480.81116 
   18000    89.063126    -5.064597            0   -3.7371957    314.47353 
   18010    354.06529   -6.3272649            0    -1.050258    493.26147 
   18020    409.20737   -6.7606645            0  -0.66181729    608.66523 
   18030    135.22667   -5.2491306            0   -3.2337054    571.94108 
   18040    401.45608     -7.49366            0   -1.5103385    770.18523 
   18050     381.9916   -6.0392715            0  -0.34604953    925.36639 
   18060    171.39236   -5.9921022            0   -3.4376619    855.72269 
   18070    403.59168   -6.8176799            0  -0.80252931    944.90774 
   18080    339.93935   -5.7760641            0  -0.70959097     873.9101 
   18090    223.69334   -6.1947201            0   -2.8607833    694.21423 
   18100    352.39566   -5.7115607            0  -0.45943809    705.74874 
   18110    349.46948   -6.1991657            0  -0.99065494    620.14922 
   18120    214.08663   -6.1834931            0   -2.9927352    451.90871 
   18130    351.31285   -5.6950453            0  -0.45906094    504.49179 
   18140    360.50852   -6.3601865            0  -0.98714933    473.85789 
   18150    223.10262   -6.1982234            0   -2.8730907    386.24986 
   18160    362.94018   -5.5491756            0   -0.1398969    511.60293 
   18170    374.32552   -6.7509056            0   -1.1719392     532.6496 
   18180    193.30237   -5.8580281            0   -2.9770398    492.73852 
   18190    371.67547     -5.54161            0 -0.0021401552     691.2294 
   18200    378.96269   -6.7999606            0   -1.1518816    734.93465 
   18210    180.53671   -5.4422471            0   -2.7515189    716.59436 
   18220    447.73087   -6.1997149            0   0.47328851    938.75679 
   18230    396.16555   -7.3590167            0   -1.4545454    910.97623 
   18240    167.04322   -5.3523725            0    -2.862752    771.93993 
   18250    517.27431   -7.2496474            0    0.4598349    834.15888 
   18260     334.2022   -6.4102659            0   -1.4292996    658.70592 
   18270     163.5886   -5.3642708            0    -2.926138    503.01321 
   18280     499.4678   -6.7846677            0   0.65942549    638.99114 
   18290    290.39896   -5.3793289            0   -1.0512083    509.11469 
   18300    168.49276   -5.7028919            0   -3.1916673    394.63252 
   18310     511.8805   -6.5501598            0    1.0789329    610.63332 
   18320    318.49836   -6.1254733            0   -1.3785578    542.83241 
   18330    214.86033   -6.2650859            0   -3.0627968    517.03691 
   18340    540.05674   -6.9124654            0    1.1365675    767.50563 
   18350    349.78318   -6.3082955            0   -1.0951094    709.00289 
   18360    231.67074   -6.1154061            0   -2.6625738    679.12964 
   18370    475.72255   -5.7748593            0    1.3153335    911.12911 
   18380    371.20125   -6.4912365            0  -0.95883448    831.30436 
   18390    194.97198   -6.2501975            0   -3.3443253    670.83878 
   18400    500.10801   -5.6824466            0    1.7711883    836.55061 
   18410    415.93993   -7.5244865            0   -1.3252969    677.77521 
   18420    163.97528   -5.5630147            0   -3.1191188    516.38036 
   18430    521.34882    -6.124447            0     1.645762    712.94509 
   18440    406.38288   -6.9582684            0  -0.90151755    584.83392 
   18450    114.05707   -5.1652365            0   -3.4653241    419.02306 
   18460    526.88323   -6.0591284            0    1.7935658    659.47821 
   18470    353.71416   -6.5264297            0   -1.2546561    528.79846 
   18480    94.187551   -4.5188471            0   -3.1150711    427.72875 
   18490    571.54136   -6.8530706            0    1.6652106    727.01095 
   18500    376.12748   -6.0409258            0  -0.43510291    682.69173 
   18510    124.40348   -5.3793277            0   -3.5252119    578.75449 
   18520    610.47338   -7.1851329            0     1.913393    897.67377 
   18530     371.2538   -6.0667121            0  -0.53352679    798.52706 
   18540     165.6142    -5.840898            0   -3.3725756     644.2599 
   18550    578.01228   -6.4607845            0    2.1539395    851.76246 
   18560    321.14978   -5.4251067            0  -0.63867433    661.66098 
   18570    170.95378   -5.3675173            0   -2.8196135    558.28084 
   18580    546.60191   -6.4765897            0    1.6699926    824.69835 
   18590    383.11983   -5.7691399            0  -0.05910267    771.08051 
   18600    180.44104   -6.6467663            0    -3.957464     590.0457 
   18610    584.62911    -6.701502            0    2.0118397    821.87504 
   18620    442.32855   -7.4292752            0  -0.83678825    657.36429 
   18630    134.08205    -4.845772            0   -2.8474064    489.84021 
   18640    510.18867   -5.5939143            0    2.0099632    691.03479 
   18650    425.73228   -6.6673208            0  -0.32218553    553.23326 
   18660    124.67764   -4.8882013            0   -3.0299996    365.91234 
   18670    508.73057    -5.499317            0     2.082829    600.92144 
   18680    443.78299   -6.7929494            0  -0.17878547    526.37957 
   18690    166.60391   -5.6802186            0   -3.1971456    402.48047 
   18700    547.67554    -6.219044            0    1.9435398    685.28418 
   18710    496.47303   -7.4526165            0 -0.053157509      634.749 
   18720    198.88297   -5.6847738            0   -2.7206121    504.17004 
   18730    529.02078     -6.25624            0    1.6283123    759.03241 
   18740     379.2379   -5.9527282            0  -0.30054755    729.59444 
   18750    190.66894   -5.7788725            0   -2.9371331    708.56245 
   18760    556.83059   -6.0292313            0    2.2697998    1055.5939 
   18770    349.03767   -5.8474515            0  -0.64537645    930.29078 
   18780    219.81323   -5.7339099            0   -2.4578024    784.88624 
   18790    567.48258   -6.6009426            0    1.8568463    910.46394 
   18800    443.33151   -6.9868314            0   -0.3793963    710.38754 
   18810    280.51749   -5.9363467            0   -1.7554999    538.86265 
   18820    520.93183   -5.6906619            0    2.0733324    635.78885 
   18830    346.05573   -5.8988222            0  -0.74119022    457.72678 
   18840    227.51592   -5.4693027            0    -2.078394    386.97565 
   18850    494.17005   -5.0853314            0    2.2798039    605.89597 
   18860    317.20077   -5.3314033            0  -0.60382716    501.18596 
   18870      209.885   -5.0885923            0   -1.9604557    465.66764 
   18880    546.78238   -6.3784119            0    1.7708602    706.72699 
   18890    385.33378   -6.9266034            0   -1.1835693    653.34458 
   18900    247.31544   -5.1001139            0   -1.4141122     740.9596 
   18910    588.57989   -6.6749678            0    2.0972565    1031.6088 
   18920    350.79931   -6.9332148            0   -1.7048843    876.90466 
   18930    270.66931    -4.946732            0   -0.9126629    839.03963 
   18940    576.55298    -6.386258            0    2.2067166     899.9752 
   18950    277.63377   -5.4394426            0    -1.301575     627.3227 
   18960    312.46411    -5.678446            0   -1.0214651    595.29351 
   18970    621.31903    -7.069161            0     2.191009    715.81781 
   18980    345.43729   -7.1722787            0   -2.0238639     462.2111 
   18990    353.66699   -5.4301539            0  -0.15908338    476.96563 
   19000    526.24079   -5.3097281            0    2.5333912    572.93807 
   19010    258.18573   -6.4455613            0   -2.5975482    354.46733 
   19020    382.37278   -5.7749614            0 -0.076058212    509.60018 
   19030    523.15505   -5.6461448            0    2.1509843    685.54261 
   19040    212.75298   -5.2607704            0   -2.0898893    540.67764 
   19050     415.9073   -6.6329151            0   -0.4342117    711.51539 
   19060    575.66774   -5.8266809            0       2.7531    913.32596 
   19070    277.31814   -7.1577606            0    -3.024597     699.1454 
   19080    426.29917    -5.806586            0    0.5469982    871.90483 
   19090    553.93471   -5.3430979            0    2.9127729    957.90123 
   19100    255.01723   -7.5334522            0   -3.7326627    619.40308 
   19110    440.24481   -5.8583479            0    0.7030829    777.66543 
   19120    585.68644   -6.0315608            0    2.6975393    822.89626 
   19130    202.60899    -5.999824            0   -2.9801295    479.86889 
   19140    419.89715   -5.7935249            0   0.46464337    584.70849 
   19150    626.32123   -6.3542995            0    2.9804236    668.99277 
   19160    139.53367   -6.1886505            0   -4.1090336    329.35405 
   19170    388.47179   -4.8476928            0   0.94211034      567.134 
   19180    636.55742   -6.6835602            0    2.8037235    725.40421 
   19190    160.24999   -6.0105625            0   -3.6221886    465.13657 
   19200    414.52567   -5.4978138            0   0.68029768    725.32367 
   19210    624.95654   -6.1472217            0     3.167162    873.95975 
   19220    103.42139   -5.3579691            0   -3.8165714     556.7759 
   19230    440.36677   -5.4327521            0    1.1304963    842.79792 
   19240    618.46315   -6.3334167            0    2.8841892    970.00342 
   19250    108.16047   -5.6452876            0   -4.0332585    623.12574 
   19260    494.64875   -5.8126956            0    1.5595743    851.45763 
   19270      613.507   -6.4006699            0    2.7430693    853.36564 
   19280    133.15656   -5.4652095            0   -3.4806375    491.28855 
   19290    490.48047   -6.6934269            0    0.6167187    656.87813 
   19300    559.72556   -5.5372808            0     2.804897    681.22382 
   19310    156.41668   -6.5311811            0    -4.199939    337.43086 
   19320    528.00132   -6.2051868            0    1.6641713    602.38509 
   19330    514.58723   -5.1639861            0    2.5054478    636.28227 
   19340    164.81827   -6.1211477            0   -3.6646879    388.44926 
   19350    550.55071   -6.8635082            0    1.3419273    690.89201 
   19360    509.28314   -5.2610789            0    2.3293027    771.09792 
   19370    191.13079   -6.5122359            0   -3.6636131    571.68869 
   19380    559.07834   -6.9322009            0    1.4003308    881.37145 
   19390    481.90989   -5.0418971            0     2.140512    927.91304 
   19400    264.52339   -7.5363386            0   -3.5938688    695.37493 
   19410    507.35132   -5.8872426            0    1.6743469     908.0893 
   19420     474.6012   -5.2821244            0    1.7913558    828.85421 
   19430    247.84508   -7.4210385            0    -3.727143    516.36425 
   19440    482.37207   -5.5866276            0      1.60267    689.81797 
   19450    483.01168   -5.6663301            0    1.5325003    629.00394 
   19460    263.63878   -7.1170612            0   -3.1877755    391.96559 
   19470    474.56738   -5.2594492            0    1.8135268    564.08507 
   19480    466.15906   -5.9681707            0   0.97948732    511.88516 
   19490    254.44526   -7.0065488            0   -3.2142838    337.10613 
   19500    483.60683   -5.4381928            0    1.7695078    577.17466 
   19510     464.7641   -5.9827629            0   0.94410461    586.85785 
   19520    281.15009   -6.8912285            0   -2.7009534    503.26875 
   19530    478.88086   -5.2225972            0    1.9146672    781.98463 
   19540    459.89845   -5.8587372            0   0.99561236    813.82001 
   19550    250.48603   -7.1456581            0   -3.4124017    695.56506 
   19560    479.54301   -4.8191216            0    2.3280115    1015.4971 
   19570    460.03095   -6.8612482            0 -0.0049237858    956.02006 
   19580    226.70894   -6.0679935            0   -2.6891122    788.31472 
   19590    534.37845   -5.7133276            0    2.2510757    936.68595 
   19600    446.50422   -6.4959175            0   0.15880377    729.84541 
   19610    182.73873   -5.5481368            0   -2.8245896    498.30926 
   19620    545.58678   -5.7180993            0    2.4133535    667.33866 
   19630    397.93816   -6.2319396            0  -0.30104921    489.98913 
   19640    178.13965    -5.264018            0   -2.6090157    334.61863 
   19650    552.56682   -5.6536416            0    2.5818421    571.08653 
   19660    396.17059    -6.163226            0  -0.25867963    444.72331 
   19670     195.7939   -5.6298034            0   -2.7116813    346.73998 
   19680    574.74891   -5.7533196            0    2.8127671    643.89444 
   19690    399.10926   -6.3594754            0  -0.41113095    559.33138 
   19700    188.13316   -5.5164446            0   -2.7124985    539.30384 
   19710    594.05296   -6.0027805            0    2.8510147    920.43783 
   19720    359.98063   -6.4250219            0   -1.0598525    862.99077 
   19730     168.6339    -5.297127            0   -2.7837988    844.66544 
   19740    630.54849    -6.856291            0    2.5414354    1097.9109 
   19750    290.13433   -4.9208632            0  -0.59668649    855.32692 
   19760    219.25985   -6.5516715            0   -3.2838116    689.97888 
   19770    662.53256   -6.8316016            0    3.0428169     903.8664 
   19780    254.82329   -5.0979308            0   -1.3000316    595.14922 
   19790    252.60851   -6.8880962            0   -3.1232063    463.62188 
   19800    640.44335    -6.454469            0    3.0907309     695.2666 
   19810    248.77913    -4.886741            0   -1.1789244    442.52956 
   19820    218.10315   -6.1917407            0   -2.9411204    364.58933 
   19830    623.80742   -6.3784183            0    2.9188388    619.91403 
   19840    240.12785     -4.61218            0   -1.0333025    418.25468 
   19850    175.75941   -6.0440902            0   -3.4245632    379.10951 
   19860    645.90284   -6.7259909            0    2.9005776    758.78906 
   19870    280.91692   -5.4704601            0   -1.2836603    674.51958 
   19880    238.66458   -6.9293262            0   -3.3722573    730.69454 
   19890    625.75221   -6.6491493            0    2.6770932    1103.8378 
   19900     293.3206   -5.2930572            0  -0.92139229    935.50887 
   19910    205.38375   -7.1038826            0   -4.0428329    791.54287 
   19920    550.62071   -5.2578297            0     2.948649    997.32399 
   19930    318.07575   -6.2634804            0   -1.5228634    685.83061 
   19940     214.7003   -6.1136185            0   -2.9137145    506.72744 
   19950    527.68542   -5.1710883            0    2.6935616    663.98962 
   19960    335.40346   -6.1438752            0   -1.1450052    451.76138 
   19970    201.94425   -6.2615818            0   -3.2517945    328.96632 
   19980    525.61856   -5.2872959            0    2.5465496    566.91656 
   19990    330.61306   -6.1855133            0   -1.2580396    416.96463 
   20000    195.85535   -6.6338287            0   -3.7147907    342.37121 
Loop time of 1.03635 on 1 procs for 20000 steps with 6 atoms

Performance: 1667.397 ns/day, 0.014 hours/ns, 19298.575 timesteps/s
66.5% CPU use with 1 MPI tasks x no OpenMP threads

MPI task timing breakdown:
Section |  min time  |  avg time  |  max time  |%varavg| %total
---------------------------------------------------------------
Pair    | 0.066049   | 0.066049   | 0.066049   |   0.0 |  6.37
Bond    | 0.013042   | 0.013042   | 0.013042   |   0.0 |  1.26
Kspace  | 0.27859    | 0.27859    | 0.27859    |   0.0 | 26.88
Neigh   | 0.028724   | 0.028724   | 0.028724   |   0.0 |  2.77
Comm    | 0.044501   | 0.044501   | 0.044501   |   0.0 |  4.29
Output  | 0.54403    | 0.54403    | 0.54403    |   0.0 | 52.50
Modify  | 0.045042   | 0.045042   | 0.045042   |   0.0 |  4.35
Other   |            | 0.01637    |            |       |  1.58

Nlocal:    6 ave 6 max 6 min
Histogram: 1 0 0 0 0 0 0 0 0 0
Nghost:    183 ave 183 max 183 min
Histogram: 1 0 0 0 0 0 0 0 0 0
Neighs:    125 ave 125 max 125 min
Histogram: 1 0 0 0 0 0 0 0 0 0

Total # of neighbors = 125
Ave neighs/atom = 20.8333
Ave special neighs/atom = 2
Neighbor list builds = 2000
Dangerous builds = 0
Total wall time: 0:00:01
