 6407 atoms
 4270 bonds
 0 angles
 0 dihedrals
 0 impropers
 2 atom types
 1 bond types
 0 angle types
 0 dihedral types
 0 improper types
 
 #Box size in Angstroms

 -0.500000 0.500000  xlo xhi
 -0.500000 0.500000  ylo yhi
 -0.500000 0.500000  zlo zhi

# Pair Coeffs
#
# 1  H
# 2  O

# Bond Coeffs
#
# 1  

 Masses

 1 1.008000 # H
 2 15.999000 # O

#Atom_number Group_number Atom_type Charge X Y Z 

 Atoms # full

1 1 2 0.000000 6.274000 32.106998 34.556000 # O HOH
2 1 1 0.000000 6.490000 31.202000 34.328999 # H HOH
3 1 1 0.000000 7.098000 32.583000 34.455002 # H HOH
4 2 2 0.000000 35.112999 26.531000 17.599001 # O HOH
5 2 1 0.000000 34.283001 26.621000 18.069000 # H HOH
6 2 1 0.000000 34.867001 26.547001 16.674000 # H HOH
7 3 2 0.000000 28.438999 37.562000 24.618999 # O HOH
8 3 1 0.000000 27.771999 38.249001 24.636000 # H HOH
9 3 1 0.000000 28.395000 37.208000 23.731001 # H HOH
10 4 2 0.000000 22.275000 32.494999 0.861000 # O HOH
11 4 1 0.000000 22.566000 32.793999 -0.000000 # H HOH
12 4 1 0.000000 23.083000 32.389999 1.364000 # H HOH
13 5 1 0.000000 40.000000 6.189000 18.009001 # H HOH
14 5 1 0.000000 39.926998 7.004000 19.283001 # H HOH
15 6 2 0.000000 24.299999 26.033001 27.802999 # O HOH
16 6 1 0.000000 23.489000 25.688999 27.431000 # H HOH
17 6 1 0.000000 24.014999 26.709000 28.417999 # H HOH
18 7 2 0.000000 18.424000 31.691999 31.462999 # O HOH
19 7 1 0.000000 18.570999 30.757999 31.607000 # H HOH
20 7 1 0.000000 18.346001 32.061001 32.342999 # H HOH
21 8 2 0.000000 32.001999 5.035000 31.648001 # O HOH
22 8 1 0.000000 32.568001 4.343000 31.992001 # H HOH
23 8 1 0.000000 32.535999 5.828000 31.698000 # H HOH
24 9 2 0.000000 39.105000 31.118000 24.768000 # O HOH
25 9 1 0.000000 40.000000 31.422001 24.615999 # H HOH
26 9 1 0.000000 39.209000 30.238001 25.129000 # H HOH
27 10 2 0.000000 11.363000 5.302000 6.949000 # O HOH
28 10 1 0.000000 10.826000 6.008000 6.587000 # H HOH
29 10 1 0.000000 10.797000 4.530000 6.919000 # H HOH
30 11 2 0.000000 19.707001 10.418000 2.903000 # O HOH
31 11 1 0.000000 18.753000 10.360000 2.854000 # H HOH
32 11 1 0.000000 19.999001 9.511000 2.991000 # H HOH
33 12 2 0.000000 32.109001 31.396999 1.320000 # O HOH
34 12 1 0.000000 32.355999 30.579000 1.751000 # H HOH
35 12 1 0.000000 31.389999 31.740000 1.850000 # H HOH
36 13 2 0.000000 9.153000 6.307000 33.973999 # O HOH
37 13 1 0.000000 9.741000 6.965000 33.599998 # H HOH
38 13 1 0.000000 9.694000 5.521000 34.055000 # H HOH
39 14 2 0.000000 39.459999 0.519000 35.412998 # O HOH
40 14 1 0.000000 38.841999 0.318000 34.709999 # H HOH
41 14 1 0.000000 38.912998 0.619000 36.192001 # H HOH
42 15 2 0.000000 37.772999 32.151001 4.144000 # O HOH
43 15 1 0.000000 36.858002 32.326000 3.920000 # H HOH
44 15 1 0.000000 38.264000 32.844002 3.704000 # H HOH
45 16 2 0.000000 5.615000 11.705000 32.838001 # O HOH
46 16 1 0.000000 4.704000 11.441000 32.965000 # H HOH
47 16 1 0.000000 5.581000 12.352000 32.133999 # H HOH
48 17 2 0.000000 11.035000 16.596001 25.181000 # O HOH
49 17 1 0.000000 11.351000 15.936000 25.799000 # H HOH
50 17 1 0.000000 11.157000 17.429001 25.636999 # H HOH
51 18 2 0.000000 23.774000 23.881001 17.679001 # O HOH
52 18 1 0.000000 24.518000 23.438000 17.271000 # H HOH
53 18 1 0.000000 23.042999 23.271999 17.570999 # H HOH
54 19 2 0.000000 12.997000 37.761002 15.776000 # O HOH
55 19 1 0.000000 13.118000 37.227001 16.561001 # H HOH
56 19 1 0.000000 12.252000 37.360001 15.326000 # H HOH
57 20 2 0.000000 33.264000 20.693001 30.628000 # O HOH
58 20 1 0.000000 33.105999 21.379999 31.275000 # H HOH
59 20 1 0.000000 34.104000 20.926001 30.231001 # H HOH
60 21 2 0.000000 11.908000 30.379000 17.604000 # O HOH
61 21 1 0.000000 11.991000 31.066999 18.264999 # H HOH
62 21 1 0.000000 11.018000 30.476999 17.266001 # H HOH
63 22 2 0.000000 37.490002 36.382999 35.069000 # O HOH
64 22 1 0.000000 37.248001 36.522999 35.984001 # H HOH
65 22 1 0.000000 38.444000 36.305000 35.082001 # H HOH
66 23 2 0.000000 21.985001 10.210000 27.230000 # O HOH
67 23 1 0.000000 22.603001 9.919000 27.900999 # H HOH
68 23 1 0.000000 21.671000 11.058000 27.545000 # H HOH
69 24 2 0.000000 13.536000 32.589001 17.895000 # O HOH
70 24 1 0.000000 13.747000 32.271999 17.017000 # H HOH
71 24 1 0.000000 14.061000 32.042999 18.481001 # H HOH
72 25 2 0.000000 16.598000 34.742001 11.513000 # O HOH
73 25 1 0.000000 16.061001 35.520000 11.667000 # H HOH
74 25 1 0.000000 17.448000 35.088001 11.238000 # H HOH
75 26 2 0.000000 16.642000 22.044001 22.337999 # O HOH
76 26 1 0.000000 16.531000 21.875999 23.274000 # H HOH
77 26 1 0.000000 16.120001 21.365000 21.909000 # H HOH
78 27 2 0.000000 34.995998 17.598000 27.945999 # O HOH
79 27 1 0.000000 35.682999 18.242001 27.775000 # H HOH
80 27 1 0.000000 35.430000 16.750999 27.843000 # H HOH
81 28 2 0.000000 40.018002 20.077000 10.038000 # O HOH
82 28 1 0.000000 39.823002 21.010000 10.122000 # H HOH
83 28 1 0.000000 39.243999 19.707001 9.613000 # H HOH
84 29 2 0.000000 27.384001 17.504999 7.835000 # O HOH
85 29 1 0.000000 27.948000 18.086000 8.345000 # H HOH
86 29 1 0.000000 27.945999 16.763000 7.609000 # H HOH
87 30 2 0.000000 23.811001 39.252998 28.898001 # O HOH
88 30 1 0.000000 24.336000 38.546001 29.273001 # H HOH
89 30 1 0.000000 23.348000 39.631001 29.646000 # H HOH
90 31 2 0.000000 4.046000 13.196000 20.573999 # O HOH
91 31 1 0.000000 3.501000 12.467000 20.278000 # H HOH
92 31 1 0.000000 3.438000 13.786000 21.018999 # H HOH
93 32 2 0.000000 13.208000 3.199000 30.025999 # O HOH
94 32 1 0.000000 13.455000 2.296000 29.823000 # H HOH
95 32 1 0.000000 12.579000 3.435000 29.344999 # H HOH
96 33 2 0.000000 25.254999 27.069000 34.576000 # O HOH
97 33 1 0.000000 24.965000 27.910999 34.928001 # H HOH
98 33 1 0.000000 26.211000 27.105000 34.623001 # H HOH
99 34 2 0.000000 9.522000 10.002000 32.722000 # O HOH
100 34 1 0.000000 8.623000 10.073000 32.400002 # H HOH
101 34 1 0.000000 9.741000 9.076000 32.618999 # H HOH
102 35 2 0.000000 5.672000 30.948999 39.255001 # O HOH
103 35 1 0.000000 5.509000 31.528000 40.000000 # H HOH
104 35 1 0.000000 5.299000 30.108000 39.518002 # H HOH
105 36 2 0.000000 37.346001 6.068000 24.743000 # O HOH
106 36 1 0.000000 36.520000 6.543000 24.830999 # H HOH
107 36 1 0.000000 37.096001 5.144000 24.768000 # H HOH
108 37 2 0.000000 30.183001 3.572000 3.827000 # O HOH
109 37 1 0.000000 29.330000 3.809000 4.192000 # H HOH
110 37 1 0.000000 30.552999 4.402000 3.524000 # H HOH
111 38 2 0.000000 3.231000 35.191002 7.975000 # O HOH
112 38 1 0.000000 3.319000 34.561001 8.691000 # H HOH
113 38 1 0.000000 2.439000 35.685001 8.187000 # H HOH
114 39 2 0.000000 10.307000 22.919001 5.189000 # O HOH
115 39 1 0.000000 10.391000 22.903000 6.142000 # H HOH
116 39 1 0.000000 11.120000 23.320999 4.883000 # H HOH
117 40 2 0.000000 30.507999 24.601999 19.127001 # O HOH
118 40 1 0.000000 30.900000 25.441000 18.882999 # H HOH
119 40 1 0.000000 29.632999 24.829000 19.444000 # H HOH
120 41 2 0.000000 15.629000 18.348000 27.674000 # O HOH
121 41 1 0.000000 15.200000 17.504999 27.524000 # H HOH
122 41 1 0.000000 14.946000 18.902000 28.049999 # H HOH
123 42 2 0.000000 16.917000 11.910000 4.817000 # O HOH
124 42 1 0.000000 17.219999 12.658000 5.332000 # H HOH
125 42 1 0.000000 17.542999 11.213000 5.014000 # H HOH
126 43 2 0.000000 1.681000 3.690000 39.520000 # O HOH
127 43 1 0.000000 1.646000 4.518000 40.000000 # H HOH
128 43 1 0.000000 2.530000 3.705000 39.077999 # H HOH
129 44 2 0.000000 21.044001 2.235000 7.162000 # O HOH
130 44 1 0.000000 21.844000 1.844000 7.516000 # H HOH
131 44 1 0.000000 20.336000 1.819000 7.654000 # H HOH
132 45 2 0.000000 16.983000 33.397999 4.382000 # O HOH
133 45 1 0.000000 16.646999 33.653000 5.242000 # H HOH
134 45 1 0.000000 17.583000 32.674999 4.564000 # H HOH
135 46 2 0.000000 18.881001 15.391000 27.823000 # O HOH
136 46 1 0.000000 18.486000 15.206000 28.674999 # H HOH
137 46 1 0.000000 18.930000 14.538000 27.391001 # H HOH
138 47 2 0.000000 24.988001 9.408000 34.931000 # O HOH
139 47 1 0.000000 24.445999 10.169000 35.138000 # H HOH
140 47 1 0.000000 25.577000 9.712000 34.240002 # H HOH
141 48 2 0.000000 2.147000 21.889000 19.990999 # O HOH
142 48 1 0.000000 1.652000 22.672001 20.233000 # H HOH
143 48 1 0.000000 2.170000 21.907000 19.034000 # H HOH
144 49 2 0.000000 9.210000 34.716000 17.618999 # O HOH
145 49 1 0.000000 8.448000 34.959000 17.094000 # H HOH
146 49 1 0.000000 9.036000 35.090000 18.483000 # H HOH
147 50 2 0.000000 30.424999 4.209000 25.872999 # O HOH
148 50 1 0.000000 29.919001 4.811000 26.419001 # H HOH
149 50 1 0.000000 30.545000 3.432000 26.419001 # H HOH
150 51 2 0.000000 13.583000 16.941000 6.381000 # O HOH
151 51 1 0.000000 13.530000 17.412001 5.550000 # H HOH
152 51 1 0.000000 13.294000 16.052999 6.173000 # H HOH
153 52 2 0.000000 38.120998 24.070999 2.671000 # O HOH
154 52 1 0.000000 37.310001 23.625999 2.424000 # H HOH
155 52 1 0.000000 38.762001 23.367001 2.765000 # H HOH
156 53 2 0.000000 37.333000 3.398000 37.487999 # O HOH
157 53 1 0.000000 38.139000 3.860000 37.716999 # H HOH
158 53 1 0.000000 36.657001 4.076000 37.497002 # H HOH
159 54 2 0.000000 26.587000 34.794998 28.659000 # O HOH
160 54 1 0.000000 26.201000 34.094002 28.135000 # H HOH
161 54 1 0.000000 25.926001 35.487000 28.660000 # H HOH
162 55 2 0.000000 20.656000 22.964001 14.322000 # O HOH
163 55 1 0.000000 19.712000 23.087999 14.221000 # H HOH
164 55 1 0.000000 20.743999 22.431999 15.113000 # H HOH
165 56 2 0.000000 3.664000 6.227000 33.057999 # O HOH
166 56 1 0.000000 4.606000 6.063000 33.098999 # H HOH
167 56 1 0.000000 3.358000 5.687000 32.328999 # H HOH
168 57 2 0.000000 20.701000 33.181000 2.742000 # O HOH
169 57 1 0.000000 20.778000 32.264999 2.475000 # H HOH
170 57 1 0.000000 21.601999 33.458000 2.910000 # H HOH
171 58 2 0.000000 25.252001 24.858999 25.587999 # O HOH
172 58 1 0.000000 24.410000 24.412001 25.500000 # H HOH
173 58 1 0.000000 25.042000 25.788000 25.490999 # H HOH
174 59 2 0.000000 1.464000 37.773998 2.475000 # O HOH
175 59 1 0.000000 1.848000 38.436001 3.050000 # H HOH
176 59 1 0.000000 1.807000 37.983002 1.606000 # H HOH
177 60 2 0.000000 12.467000 24.855000 10.963000 # O HOH
178 60 1 0.000000 12.616000 24.120001 10.369000 # H HOH
179 60 1 0.000000 11.685000 25.287001 10.618000 # H HOH
180 61 2 0.000000 9.241000 5.742000 19.797001 # O HOH
181 61 1 0.000000 8.353000 6.060000 19.636000 # H HOH
182 61 1 0.000000 9.133000 5.040000 20.438000 # H HOH
183 62 2 0.000000 10.761000 5.105000 38.528000 # O HOH
184 62 1 0.000000 10.437000 4.214000 38.664001 # H HOH
185 62 1 0.000000 11.323000 5.274000 39.285000 # H HOH
186 63 2 0.000000 31.414000 9.951000 4.318000 # O HOH
187 63 1 0.000000 31.687000 9.293000 4.958000 # H HOH
188 63 1 0.000000 30.764999 9.503000 3.775000 # H HOH
189 64 2 0.000000 38.419998 28.294001 9.970000 # O HOH
190 64 1 0.000000 37.787998 28.200001 10.683000 # H HOH
191 64 1 0.000000 38.967999 27.511999 10.030000 # H HOH
192 65 2 0.000000 36.841000 16.127001 24.740000 # O HOH
193 65 1 0.000000 36.196999 15.513000 25.093000 # H HOH
194 65 1 0.000000 36.320000 16.777000 24.268999 # H HOH
195 66 2 0.000000 7.173000 24.319000 30.422001 # O HOH
196 66 1 0.000000 7.647000 23.487000 30.427000 # H HOH
197 66 1 0.000000 7.860000 24.986000 30.408001 # H HOH
198 67 2 0.000000 37.070000 18.379999 37.511002 # O HOH
199 67 1 0.000000 36.125000 18.261000 37.598000 # H HOH
200 67 1 0.000000 37.165001 19.145000 36.944000 # H HOH
201 68 2 0.000000 4.333000 28.176001 25.343000 # O HOH
202 68 1 0.000000 4.442000 27.910999 26.257000 # H HOH
203 68 1 0.000000 5.189000 28.020000 24.944000 # H HOH
204 69 2 0.000000 13.477000 0.076000 9.319000 # O HOH
205 69 1 0.000000 13.258000 0.928000 8.941000 # H HOH
206 69 1 0.000000 12.882000 -0.017000 10.063000 # H HOH
207 70 2 0.000000 1.533000 0.605000 37.688999 # O HOH
208 70 1 0.000000 0.841000 -0.000000 37.422001 # H HOH
209 70 1 0.000000 1.364000 1.401000 37.183998 # H HOH
210 71 2 0.000000 1.817000 27.318001 27.162001 # O HOH
211 71 1 0.000000 2.293000 28.016001 26.711000 # H HOH
212 71 1 0.000000 1.201000 27.777000 27.732000 # H HOH
213 72 2 0.000000 11.513000 18.107000 37.627998 # O HOH
214 72 1 0.000000 12.193000 17.898001 38.269001 # H HOH
215 72 1 0.000000 10.726000 17.681000 37.966000 # H HOH
216 73 2 0.000000 7.755000 19.344999 36.429001 # O HOH
217 73 1 0.000000 7.324000 20.117001 36.796001 # H HOH
218 73 1 0.000000 8.682000 19.468000 36.634998 # H HOH
219 74 2 0.000000 13.241000 8.377000 7.822000 # O HOH
220 74 1 0.000000 13.699000 8.579000 8.638000 # H HOH
221 74 1 0.000000 13.875000 7.874000 7.310000 # H HOH
222 75 2 0.000000 39.928001 32.472000 34.662998 # O HOH
223 75 1 0.000000 39.813999 32.261002 35.590000 # H HOH
224 75 1 0.000000 40.000000 33.426998 34.641998 # H HOH
225 76 2 0.000000 -0.000000 14.364000 12.037000 # O HOH
226 76 1 0.000000 0.843000 13.911000 12.060000 # H HOH
227 76 1 0.000000 0.021000 14.869000 11.224000 # H HOH
228 77 2 0.000000 2.472000 23.666000 7.506000 # O HOH
229 77 1 0.000000 2.030000 22.879999 7.185000 # H HOH
230 77 1 0.000000 3.029000 23.354000 8.220000 # H HOH
231 78 2 0.000000 4.235000 7.735000 31.561001 # O HOH
232 78 1 0.000000 3.623000 8.452000 31.725000 # H HOH
233 78 1 0.000000 4.979000 8.150000 31.125999 # H HOH
234 79 2 0.000000 20.014000 34.716000 34.342999 # O HOH
235 79 1 0.000000 20.145000 33.801998 34.592999 # H HOH
236 79 1 0.000000 20.046000 34.709999 33.386002 # H HOH
237 80 2 0.000000 33.505001 28.719000 16.443001 # O HOH
238 80 1 0.000000 33.249001 27.893000 16.033001 # H HOH
239 80 1 0.000000 33.062000 28.714001 17.291000 # H HOH
240 81 2 0.000000 35.004002 9.934000 15.729000 # O HOH
241 81 1 0.000000 34.605000 10.363000 16.486000 # H HOH
242 81 1 0.000000 34.412998 10.131000 15.003000 # H HOH
243 82 2 0.000000 4.634000 21.969999 19.849001 # O HOH
244 82 1 0.000000 4.208000 21.120001 19.964001 # H HOH
245 82 1 0.000000 5.194000 22.063999 20.620001 # H HOH
246 83 2 0.000000 7.739000 13.468000 15.985000 # O HOH
247 83 1 0.000000 7.430000 12.575000 15.835000 # H HOH
248 83 1 0.000000 8.442000 13.589000 15.348000 # H HOH
249 84 2 0.000000 4.041000 14.292000 10.073000 # O HOH
250 84 1 0.000000 4.441000 14.412000 9.212000 # H HOH
251 84 1 0.000000 3.100000 14.256000 9.899000 # H HOH
252 85 2 0.000000 27.851000 28.860001 12.786000 # O HOH
253 85 1 0.000000 28.481001 28.222000 12.452000 # H HOH
254 85 1 0.000000 27.049999 28.690001 12.289000 # H HOH
255 86 2 0.000000 35.113998 36.750000 31.480000 # O HOH
256 86 1 0.000000 35.589001 37.039001 30.701000 # H HOH
257 86 1 0.000000 34.972000 37.550999 31.985001 # H HOH
258 87 2 0.000000 23.056999 33.527000 27.415001 # O HOH
259 87 1 0.000000 23.816000 33.141998 26.978001 # H HOH
260 87 1 0.000000 23.000999 34.415001 27.061001 # H HOH
261 88 2 0.000000 7.857000 31.577999 5.045000 # O HOH
262 88 1 0.000000 7.975000 31.684000 4.100000 # H HOH
263 88 1 0.000000 7.683000 30.643999 5.161000 # H HOH
264 89 2 0.000000 20.716000 6.475000 23.334999 # O HOH
265 89 1 0.000000 20.532000 5.536000 23.362000 # H HOH
266 89 1 0.000000 21.672001 6.533000 23.337000 # H HOH
267 90 2 0.000000 24.010000 25.164000 6.180000 # O HOH
268 90 1 0.000000 23.413000 24.416000 6.196000 # H HOH
269 90 1 0.000000 24.879000 24.780001 6.299000 # H HOH
270 91 2 0.000000 15.777000 10.430000 6.925000 # O HOH
271 91 1 0.000000 16.452999 9.914000 7.365000 # H HOH
272 91 1 0.000000 14.985000 9.897000 6.997000 # H HOH
273 92 2 0.000000 29.117001 1.134000 35.268002 # O HOH
274 92 1 0.000000 28.773001 2.023000 35.359001 # H HOH
275 92 1 0.000000 29.899000 1.234000 34.724998 # H HOH
276 93 2 0.000000 14.103000 5.100000 29.375000 # O HOH
277 93 1 0.000000 14.193000 6.040000 29.532000 # H HOH
278 93 1 0.000000 13.801000 5.036000 28.469000 # H HOH
279 94 2 0.000000 13.976000 26.106001 9.964000 # O HOH
280 94 1 0.000000 13.319000 26.346001 9.310000 # H HOH
281 94 1 0.000000 14.573000 25.518000 9.501000 # H HOH
282 95 2 0.000000 30.181999 31.250999 15.157000 # O HOH
283 95 1 0.000000 29.518000 30.850000 14.596000 # H HOH
284 95 1 0.000000 30.228001 30.677000 15.922000 # H HOH
285 96 2 0.000000 17.995001 8.732000 20.129999 # O HOH
286 96 1 0.000000 17.125000 8.334000 20.097000 # H HOH
287 96 1 0.000000 18.249001 8.832000 19.212999 # H HOH
288 97 2 0.000000 0.940000 12.919000 4.027000 # O HOH
289 97 1 0.000000 1.836000 13.215000 4.191000 # H HOH
290 97 1 0.000000 0.728000 12.369000 4.782000 # H HOH
291 98 2 0.000000 34.495998 31.538000 33.424999 # O HOH
292 98 1 0.000000 34.243000 32.460999 33.403000 # H HOH
293 98 1 0.000000 35.122002 31.476999 34.146999 # H HOH
294 99 2 0.000000 2.926000 20.056999 35.737999 # O HOH
295 99 1 0.000000 2.266000 19.698999 35.144001 # H HOH
296 99 1 0.000000 2.548000 19.948000 36.611000 # H HOH
297 100 2 0.000000 21.503000 13.015000 9.915000 # O HOH
298 100 1 0.000000 21.010000 12.392000 10.449000 # H HOH
299 100 1 0.000000 22.268999 13.233000 10.446000 # H HOH
300 101 2 0.000000 19.985001 36.165001 1.718000 # O HOH
301 101 1 0.000000 20.707001 36.789001 1.641000 # H HOH
302 101 1 0.000000 20.333000 35.460999 2.266000 # H HOH
303 102 2 0.000000 4.000000 23.403999 34.563999 # O HOH
304 102 1 0.000000 3.089000 23.349001 34.275002 # H HOH
305 102 1 0.000000 4.113000 22.653000 35.146999 # H HOH
306 103 2 0.000000 30.646000 17.714001 2.089000 # O HOH
307 103 1 0.000000 30.374001 17.431000 1.216000 # H HOH
308 103 1 0.000000 29.917000 17.468000 2.659000 # H HOH
309 104 2 0.000000 29.098000 28.485001 17.393999 # O HOH
310 104 1 0.000000 28.875999 29.410999 17.499001 # H HOH
311 104 1 0.000000 30.051001 28.455999 17.480000 # H HOH
312 105 2 0.000000 25.025000 10.941000 27.959999 # O HOH
313 105 1 0.000000 24.796000 10.016000 28.048000 # H HOH
314 105 1 0.000000 24.205999 11.409000 28.124001 # H HOH
315 106 2 0.000000 38.824001 28.285000 14.907000 # O HOH
316 106 1 0.000000 39.075001 27.410000 14.611000 # H HOH
317 106 1 0.000000 39.209999 28.875999 14.261000 # H HOH
318 107 2 0.000000 10.860000 7.358000 36.396000 # O HOH
319 107 1 0.000000 11.296000 6.626000 36.832001 # H HOH
320 107 1 0.000000 10.298000 6.946000 35.740002 # H HOH
321 108 2 0.000000 3.819000 37.669998 11.973000 # O HOH
322 108 1 0.000000 3.692000 37.141998 11.185000 # H HOH
323 108 1 0.000000 3.328000 38.473999 11.805000 # H HOH
324 109 2 0.000000 2.668000 31.606001 34.750999 # O HOH
325 109 1 0.000000 2.499000 32.221001 34.036999 # H HOH
326 109 1 0.000000 1.999000 30.929001 34.647999 # H HOH
327 110 2 0.000000 38.009998 32.134998 14.022000 # O HOH
328 110 1 0.000000 37.221001 31.893000 14.506000 # H HOH
329 110 1 0.000000 38.090000 33.081001 14.150000 # H HOH
330 111 2 0.000000 12.833000 35.792999 34.300999 # O HOH
331 111 1 0.000000 13.204000 36.040001 35.148998 # H HOH
332 111 1 0.000000 13.113000 34.887001 34.171001 # H HOH
333 112 2 0.000000 20.533001 32.150002 32.126999 # O HOH
334 112 1 0.000000 20.454000 31.319000 32.595001 # H HOH
335 112 1 0.000000 20.871000 32.763000 32.779999 # H HOH
336 113 2 0.000000 9.054000 34.769001 10.997000 # O HOH
337 113 1 0.000000 8.772000 34.231998 11.737000 # H HOH
338 113 1 0.000000 9.516000 35.506001 11.398000 # H HOH
339 114 2 0.000000 32.439999 11.713000 32.398998 # O HOH
340 114 1 0.000000 32.917000 10.917000 32.633999 # H HOH
341 114 1 0.000000 31.711000 11.406000 31.861000 # H HOH
342 115 2 0.000000 3.494000 20.653999 7.972000 # O HOH
343 115 1 0.000000 2.747000 21.135000 8.328000 # H HOH
344 115 1 0.000000 4.243000 21.231001 8.121000 # H HOH
345 116 2 0.000000 21.327999 39.970001 24.033001 # O HOH
346 116 1 0.000000 22.160000 40.001999 24.506001 # H HOH
347 116 1 0.000000 21.577999 39.952999 23.108999 # H HOH
348 117 2 0.000000 29.770000 29.806999 5.908000 # O HOH
349 117 1 0.000000 30.516001 29.257000 5.670000 # H HOH
350 117 1 0.000000 29.047001 29.190001 6.030000 # H HOH
351 118 2 0.000000 9.266000 4.910000 -0.000000 # O HOH
352 118 1 0.000000 8.428000 4.448000 0.004000 # H HOH
353 118 1 0.000000 9.030000 5.837000 0.006000 # H HOH
354 119 2 0.000000 1.579000 24.750999 27.966000 # O HOH
355 119 1 0.000000 2.353000 25.263000 27.733999 # H HOH
356 119 1 0.000000 0.860000 25.177999 27.500999 # H HOH
357 120 2 0.000000 3.793000 4.076000 6.176000 # O HOH
358 120 1 0.000000 3.269000 3.277000 6.119000 # H HOH
359 120 1 0.000000 3.152000 4.786000 6.140000 # H HOH
360 121 2 0.000000 22.462000 27.976000 16.058001 # O HOH
361 121 1 0.000000 22.684999 27.375000 16.768999 # H HOH
362 121 1 0.000000 22.646000 28.846001 16.413000 # H HOH
363 122 2 0.000000 7.451000 9.837000 18.676001 # O HOH
364 122 1 0.000000 7.229000 8.968000 19.011000 # H HOH
365 122 1 0.000000 8.322000 9.731000 18.292999 # H HOH
366 123 2 0.000000 15.420000 30.479000 1.735000 # O HOH
367 123 1 0.000000 14.548000 30.500000 2.129000 # H HOH
368 123 1 0.000000 15.579000 29.552000 1.556000 # H HOH
369 124 2 0.000000 28.372000 34.841999 12.953000 # O HOH
370 124 1 0.000000 28.347000 35.620998 13.508000 # H HOH
371 124 1 0.000000 27.476999 34.500999 12.977000 # H HOH
372 125 2 0.000000 17.624001 35.422001 20.745001 # O HOH
373 125 1 0.000000 17.332001 35.132000 19.881001 # H HOH
374 125 1 0.000000 18.132999 34.687000 21.086000 # H HOH
375 126 2 0.000000 27.437000 37.744999 15.016000 # O HOH
376 126 1 0.000000 27.433001 37.785000 14.059000 # H HOH
377 126 1 0.000000 28.365000 37.729000 15.251000 # H HOH
378 127 2 0.000000 30.017000 14.812000 18.146999 # O HOH
379 127 1 0.000000 30.509001 14.091000 17.754000 # H HOH
380 127 1 0.000000 30.687000 15.385000 18.518999 # H HOH
381 128 2 0.000000 30.011000 11.407000 37.827999 # O HOH
382 128 1 0.000000 30.496000 11.174000 38.618999 # H HOH
383 128 1 0.000000 30.676001 11.749000 37.230000 # H HOH
384 129 2 0.000000 21.270000 19.888000 4.886000 # O HOH
385 129 1 0.000000 21.422001 18.978001 5.139000 # H HOH
386 129 1 0.000000 22.136000 20.221001 4.652000 # H HOH
387 130 2 0.000000 7.021000 6.307000 6.567000 # O HOH
388 130 1 0.000000 7.484000 7.054000 6.188000 # H HOH
389 130 1 0.000000 7.707000 5.660000 6.736000 # H HOH
390 131 2 0.000000 0.359000 1.015000 40.007999 # O HOH
391 131 1 0.000000 0.926000 1.623000 39.534000 # H HOH
392 131 1 0.000000 0.514000 0.167000 39.591000 # H HOH
393 132 2 0.000000 11.500000 34.497002 22.323999 # O HOH
394 132 1 0.000000 12.268000 33.944000 22.174999 # H HOH
395 132 1 0.000000 11.824000 35.390999 22.216999 # H HOH
396 133 2 0.000000 7.155000 7.113000 27.846001 # O HOH
397 133 1 0.000000 7.319000 6.441000 27.184000 # H HOH
398 133 1 0.000000 7.969000 7.615000 27.886000 # H HOH
399 134 2 0.000000 23.885000 16.114000 26.957001 # O HOH
400 134 1 0.000000 23.400000 16.072001 27.781000 # H HOH
401 134 1 0.000000 23.216999 16.283001 26.292999 # H HOH
402 135 2 0.000000 24.855000 32.353001 13.507000 # O HOH
403 135 1 0.000000 25.268999 33.047001 12.994000 # H HOH
404 135 1 0.000000 24.292000 32.816002 14.128000 # H HOH
405 136 2 0.000000 36.000999 37.375999 25.555000 # O HOH
406 136 1 0.000000 36.730000 37.263000 26.165001 # H HOH
407 136 1 0.000000 35.426998 36.629002 25.724001 # H HOH
408 137 2 0.000000 22.115999 12.482000 38.826000 # O HOH
409 137 1 0.000000 22.847000 11.864000 38.868999 # H HOH
410 137 1 0.000000 22.507999 13.295000 38.507999 # H HOH
411 138 2 0.000000 11.743000 17.645000 34.840000 # O HOH
412 138 1 0.000000 11.077000 18.305000 34.646999 # H HOH
413 138 1 0.000000 12.029000 17.334999 33.980999 # H HOH
414 139 2 0.000000 34.388000 10.282000 22.705999 # O HOH
415 139 1 0.000000 34.834000 9.745000 23.360001 # H HOH
416 139 1 0.000000 35.084000 10.563000 22.111000 # H HOH
417 140 2 0.000000 31.872000 27.468000 36.507999 # O HOH
418 140 1 0.000000 31.570999 26.597000 36.250999 # H HOH
419 140 1 0.000000 32.827000 27.412001 36.474998 # H HOH
420 141 2 0.000000 30.440001 21.063000 30.347000 # O HOH
421 141 1 0.000000 31.018000 21.297001 29.620001 # H HOH
422 141 1 0.000000 30.677999 20.160999 30.562000 # H HOH
423 142 2 0.000000 8.565000 22.438999 25.000999 # O HOH
424 142 1 0.000000 9.362000 22.233999 25.490000 # H HOH
425 142 1 0.000000 8.854000 23.031000 24.306999 # H HOH
426 143 2 0.000000 16.954000 11.682000 34.868000 # O HOH
427 143 1 0.000000 16.562000 10.811000 34.936001 # H HOH
428 143 1 0.000000 17.898001 11.521000 34.874001 # H HOH
429 144 2 0.000000 19.909000 2.042000 31.766001 # O HOH
430 144 1 0.000000 19.601000 2.837000 32.202000 # H HOH
431 144 1 0.000000 19.139000 1.706000 31.308001 # H HOH
432 145 2 0.000000 19.212999 26.004000 1.377000 # O HOH
433 145 1 0.000000 18.593000 25.493000 0.858000 # H HOH
434 145 1 0.000000 18.681999 26.386000 2.077000 # H HOH
435 146 2 0.000000 30.891001 38.320999 32.345001 # O HOH
436 146 1 0.000000 30.775000 39.248001 32.133999 # H HOH
437 146 1 0.000000 31.070000 37.903999 31.502001 # H HOH
438 147 2 0.000000 7.977000 35.341999 20.934000 # O HOH
439 147 1 0.000000 8.467000 34.520000 20.964001 # H HOH
440 147 1 0.000000 7.478000 35.294998 20.118000 # H HOH
441 148 2 0.000000 7.742000 16.584000 30.927999 # O HOH
442 148 1 0.000000 7.218000 17.247999 31.375999 # H HOH
443 148 1 0.000000 8.320000 17.083000 30.351000 # H HOH
444 149 2 0.000000 22.410000 9.332000 35.068001 # O HOH
445 149 1 0.000000 22.518000 9.547000 35.993999 # H HOH
446 149 1 0.000000 22.958000 8.558000 34.936001 # H HOH
447 150 2 0.000000 6.834000 13.712000 38.629002 # O HOH
448 150 1 0.000000 6.776000 14.617000 38.933998 # H HOH
449 150 1 0.000000 7.739000 13.616000 38.332001 # H HOH
450 151 2 0.000000 32.158001 22.732000 24.035999 # O HOH
451 151 1 0.000000 32.332001 21.799000 23.917000 # H HOH
452 151 1 0.000000 31.462000 22.764000 24.691999 # H HOH
453 152 2 0.000000 36.160000 20.506001 12.194000 # O HOH
454 152 1 0.000000 35.688999 21.337000 12.251000 # H HOH
455 152 1 0.000000 36.089001 20.129000 13.071000 # H HOH
456 153 2 0.000000 8.388000 1.108000 20.150000 # O HOH
457 153 1 0.000000 8.471000 0.173000 19.959999 # H HOH
458 153 1 0.000000 9.290000 1.424000 20.200001 # H HOH
459 154 2 0.000000 8.466000 31.254000 12.378000 # O HOH
460 154 1 0.000000 7.585000 30.879999 12.362000 # H HOH
461 154 1 0.000000 8.670000 31.348000 13.309000 # H HOH
462 155 2 0.000000 19.021999 32.866001 18.658001 # O HOH
463 155 1 0.000000 18.548000 33.306999 19.363001 # H HOH
464 155 1 0.000000 19.843000 33.353001 18.580000 # H HOH
465 156 2 0.000000 32.859001 13.153000 38.715000 # O HOH
466 156 1 0.000000 32.028999 13.162000 38.237999 # H HOH
467 156 1 0.000000 33.002998 12.232000 38.929001 # H HOH
468 157 2 0.000000 15.015000 30.391001 34.141998 # O HOH
469 157 1 0.000000 15.775000 29.832001 34.301998 # H HOH
470 157 1 0.000000 15.322000 31.275999 34.338001 # H HOH
471 158 2 0.000000 16.368000 2.071000 4.012000 # O HOH
472 158 1 0.000000 16.212000 1.129000 3.945000 # H HOH
473 158 1 0.000000 15.938000 2.441000 3.241000 # H HOH
474 159 2 0.000000 13.415000 7.543000 39.355999 # O HOH
475 159 1 0.000000 14.104000 8.207000 39.354000 # H HOH
476 159 1 0.000000 13.878000 6.719000 39.511002 # H HOH
477 160 2 0.000000 8.740000 4.255000 5.395000 # O HOH
478 160 1 0.000000 9.364000 4.977000 5.310000 # H HOH
479 160 1 0.000000 9.284000 3.488000 5.574000 # H HOH
480 161 2 0.000000 39.766998 29.427000 38.757000 # O HOH
481 161 1 0.000000 39.680000 29.921000 37.941002 # H HOH
482 161 1 0.000000 38.865002 29.253000 39.028999 # H HOH
483 162 2 0.000000 11.877000 25.867001 34.395000 # O HOH
484 162 1 0.000000 11.052000 26.191000 34.030998 # H HOH
485 162 1 0.000000 11.866000 26.155001 35.307999 # H HOH
486 163 2 0.000000 6.751000 9.647000 33.474998 # O HOH
487 163 1 0.000000 6.878000 9.773000 34.415001 # H HOH
488 163 1 0.000000 5.802000 9.578000 33.367001 # H HOH
489 164 2 0.000000 7.119000 39.480000 16.174000 # O HOH
490 164 1 0.000000 6.659000 39.792999 15.395000 # H HOH
491 164 1 0.000000 6.694000 38.647999 16.385000 # H HOH
492 165 2 0.000000 21.785999 32.205002 25.059999 # O HOH
493 165 1 0.000000 21.065001 32.639999 25.516001 # H HOH
494 165 1 0.000000 22.344000 32.921001 24.754999 # H HOH
495 166 2 0.000000 9.245000 8.547000 16.684999 # O HOH
496 166 1 0.000000 10.197000 8.651000 16.666000 # H HOH
497 166 1 0.000000 9.104000 7.713000 17.132999 # H HOH
498 167 2 0.000000 13.963000 28.091999 11.826000 # O HOH
499 167 1 0.000000 13.024000 27.903000 11.828000 # H HOH
500 167 1 0.000000 14.381000 27.231001 11.813000 # H HOH
501 168 2 0.000000 35.588001 18.589001 23.014000 # O HOH
502 168 1 0.000000 35.805000 18.489000 22.087000 # H HOH
503 168 1 0.000000 34.640999 18.448999 23.055000 # H HOH
504 169 2 0.000000 28.326000 13.683000 25.823999 # O HOH
505 169 1 0.000000 27.988001 13.686000 24.929001 # H HOH
506 169 1 0.000000 27.774000 14.311000 26.291000 # H HOH
507 170 2 0.000000 15.043000 26.872000 25.864000 # O HOH
508 170 1 0.000000 14.097000 26.961000 25.983999 # H HOH
509 170 1 0.000000 15.187000 25.930000 25.782000 # H HOH
510 171 2 0.000000 31.299999 7.172000 26.670000 # O HOH
511 171 1 0.000000 32.192001 7.519000 26.688999 # H HOH
512 171 1 0.000000 30.740000 7.949000 26.681999 # H HOH
513 172 2 0.000000 33.358002 11.421000 30.370001 # O HOH
514 172 1 0.000000 34.155998 11.168000 30.833000 # H HOH
515 172 1 0.000000 33.609001 12.193000 29.862000 # H HOH
516 173 2 0.000000 24.177999 24.940001 33.249001 # O HOH
517 173 1 0.000000 24.125999 24.362000 34.011002 # H HOH
518 173 1 0.000000 23.712000 24.468000 32.557999 # H HOH
519 174 2 0.000000 29.046000 31.228001 34.528000 # O HOH
520 174 1 0.000000 28.730000 32.026001 34.952999 # H HOH
521 174 1 0.000000 28.879999 31.371000 33.596001 # H HOH
522 175 2 0.000000 1.382000 4.792000 9.044000 # O HOH
523 175 1 0.000000 1.073000 5.651000 8.754000 # H HOH
524 175 1 0.000000 0.793000 4.169000 8.618000 # H HOH
525 176 2 0.000000 5.257000 3.275000 1.654000 # O HOH
526 176 1 0.000000 4.830000 2.430000 1.515000 # H HOH
527 176 1 0.000000 4.867000 3.612000 2.460000 # H HOH
528 177 2 0.000000 17.304001 7.534000 8.446000 # O HOH
529 177 1 0.000000 16.587999 8.041000 8.829000 # H HOH
530 177 1 0.000000 17.382999 7.868000 7.552000 # H HOH
531 178 2 0.000000 14.081000 21.948999 19.715000 # O HOH
532 178 1 0.000000 13.294000 22.384001 19.385000 # H HOH
533 178 1 0.000000 14.693000 22.663000 19.892000 # H HOH