LAMMPS data file via write_data, version 16 Mar 2018, timestep = 2400000

3 atoms
2 atom types
2 bonds
1 bond types
1 angles
1 angle types

-5.0000000000000000e+00 5.0000000000000000e+00 xlo xhi
-5.0000000000000000e+00 5.0000000000000000e+00 ylo yhi
-5.0000000000000000e+00 5.0000000000000000e+00 zlo zhi

Masses

1 15.999
2 1.008

Atoms # full

1 1 1 -8.0679999999999996e-01 2.0646973905521335e+00 -4.0885236044800287e-02 -8.5295335111703341e-03 0 0 0
3 1 2 4.0339999999999998e-01 1.3394590051888324e+00 -6.3471954876300599e-02 -7.8744935323804799e-01 0 0 0
2 1 2 4.0339999999999998e-01 2.7336624795966395e+00 7.1240339226901761e-01 -1.7716969584812628e-01 0 0 0

Velocities

1 -8.9521984466119260e-04 -2.4570398633898174e-04 7.0296479436596142e-05
3 2.6175757858344764e-02 1.9239132285808012e-02 1.2227256219010047e-02
2 -1.1966807169119313e-02 -1.5339312764542909e-02 -1.3343003614351331e-02

Bonds

1 1 1 2
2 1 1 3

Angles

1 1 2 1 3
