LAMMPS data file via write_data, version 16 Mar 2018, timestep = 20000

3 atoms
2 atom types
2 bonds
1 bond types
1 angles
1 angle types

-5.0000000000000000e+00 5.0000000000000000e+00 xlo xhi
-5.0000000000000000e+00 5.0000000000000000e+00 ylo yhi
-5.0000000000000000e+00 5.0000000000000000e+00 zlo zhi

Masses

1 15.999
2 1.008

Atoms # full

2 1 2 4.0339999999999998e-01 1.9011745854093696e+00 -3.6019006069511506e-01 -9.3689397211463143e-01 0 0 0
1 1 1 -8.0679999999999996e-01 2.0102023185209363e+00 -5.3497018677488443e-14 -1.0202318520291869e-02 0 0 0
3 1 2 4.0339999999999998e-01 2.9368939721152652e+00 3.6019006069498477e-01 9.8825414591294916e-02 0 0 0

Velocities

2 6.9377648702721088e-04 3.9254339560661347e-04 -1.1159063499092423e-04
1 -5.0741300017761266e-05 2.5006461710390354e-16 5.0741300018497602e-05
3 1.1159063498095194e-04 -3.9254339561061108e-04 -6.9377648702851691e-04

Bonds

1 1 1 2
2 1 1 3

Angles

1 1 2 1 3
