LAMMPS data file via write_data, version 16 Mar 2018, timestep = 1000000

3 atoms
2 atom types
2 bonds
1 bond types
1 angles
1 angle types

-5.0000000000000000e+00 5.0000000000000000e+00 xlo xhi
-5.0000000000000000e+00 5.0000000000000000e+00 ylo yhi
-5.0000000000000000e+00 5.0000000000000000e+00 zlo zhi

Masses

1 15.999
2 1.008

Atoms # full

1 1 1 -8.0679999999999996e-01 2.0740386926828811e+00 -3.2631589006915693e-02 -7.4960093234203731e-02 0 0 0
3 1 2 4.0339999999999998e-01 1.5685225867228827e+00 5.3553452566205728e-01 -6.9849932303910356e-01 0 0 0
2 1 2 4.0339999999999998e-01 2.2563335238027267e+00 -1.7605164745434582e-02 8.8826770115283205e-01 0 0 0

Velocities

1 6.6331780575597417e-04 -1.6881401553960700e-03 -5.4973486490184249e-04
3 4.9833482981547000e-03 1.1823256026227448e-02 1.9635394337480009e-03
2 -1.5511544304384700e-02 1.4970944714058116e-02 6.7618654308671091e-03

Bonds

1 1 1 2
2 1 1 3

Angles

1 1 2 1 3
