LAMMPS data file via write_data, version 16 Mar 2018, timestep = 43340

750 atoms
2 atom types
500 bonds
1 bond types
250 angles
1 angle types

1.0131924402358285e+01 2.9868075597642211e+01 xlo xhi
1.0131924402358285e+01 2.9868075597642211e+01 ylo yhi
1.0131924402358285e+01 2.9868075597642211e+01 zlo zhi

Masses

1 15.999
2 1.008

Atoms # full

439 147 1 -8.1999999999999995e-01 1.3619396364122698e+01 1.0519921782520214e+01 1.2210310971980869e+01 1 1 1
535 179 1 -8.1999999999999995e-01 1.6023621815537719e+01 1.6213657523457883e+01 1.3156197285595663e+01 1 0 1
440 147 2 4.0999999999999998e-01 1.2849919424124813e+01 1.1106256122780904e+01 1.1956999858627956e+01 1 1 1
41 14 2 4.0999999999999998e-01 1.1399503918075769e+01 1.3715321026332184e+01 1.2823168466128676e+01 0 0 -1
40 14 1 -8.1999999999999995e-01 1.2150794635014082e+01 1.3059609131652843e+01 1.2747971024694666e+01 0 0 -1
42 14 2 4.0999999999999998e-01 1.2803825950615010e+01 1.3214462944620816e+01 1.3489336201840132e+01 0 0 -1
209 70 2 4.0999999999999998e-01 1.0976812988308321e+01 1.5759792886514077e+01 1.3943286971625303e+01 1 0 1
722 241 2 4.0999999999999998e-01 1.3096776605698210e+01 1.3004715048385746e+01 1.6042491849445693e+01 0 1 0
723 241 2 4.0999999999999998e-01 1.2665126637430927e+01 1.3520478966846373e+01 1.7530585559761597e+01 0 1 0
721 241 1 -8.1999999999999995e-01 1.2635147609297285e+01 1.2751027690013972e+01 1.6892545357724448e+01 0 1 0
536 179 2 4.0999999999999998e-01 1.6914538603392323e+01 1.6041113053094040e+01 1.2736024418786595e+01 1 0 1
688 230 1 -8.1999999999999995e-01 1.4005704100385380e+01 1.3469260476271511e+01 1.4452327890261484e+01 1 0 1
690 230 2 4.0999999999999998e-01 1.4504106994454720e+01 1.2745268652411847e+01 1.4929276446225376e+01 1 0 1
467 156 2 4.0999999999999998e-01 1.5092246141954195e+01 1.1471222914489491e+01 1.2369876681241436e+01 0 0 1
689 230 2 4.0999999999999998e-01 1.4653367835032601e+01 1.4149938846317513e+01 1.4109898636959098e+01 1 0 1
208 70 1 -8.1999999999999995e-01 1.0388641172947075e+01 1.5058844394592676e+01 1.3539833381167405e+01 1 0 1
563 188 2 4.0999999999999998e-01 1.2068882924655991e+01 1.2436343959940386e+01 1.1247883620251024e+01 1 1 1
537 179 2 4.0999999999999998e-01 1.5336029856550804e+01 1.6337517035367217e+01 1.2440707167173716e+01 1 0 1
562 188 1 -8.1999999999999995e-01 1.1744220287009320e+01 1.1903631776108416e+01 1.0466305845251439e+01 1 1 1
466 156 1 -8.1999999999999995e-01 1.6047625197051293e+01 1.1495065281578373e+01 1.2664381587702009e+01 0 0 1
686 229 2 4.0999999999999998e-01 1.1477268578640293e+01 1.5039040712343503e+01 1.8113416830948722e+01 1 0 0
87 29 2 4.0999999999999998e-01 1.9048019203724046e+01 1.7365659431213498e+01 1.0741725054862304e+01 0 0 0
217 73 1 -8.1999999999999995e-01 1.4565131980559670e+01 1.7875851065500690e+01 1.7606786569864767e+01 0 0 0
219 73 2 4.0999999999999998e-01 1.4738438867128149e+01 1.7761708261928042e+01 1.6628529641762263e+01 0 0 0
365 122 2 4.0999999999999998e-01 1.2261457673394778e+01 1.0363092869830265e+01 1.6862976894950936e+01 0 0 1
516 172 2 4.0999999999999998e-01 1.3613294010996489e+01 1.5129290320952361e+01 1.9387003012419996e+01 0 0 0
413 138 2 4.0999999999999998e-01 1.4611264170277872e+01 1.0613910709591186e+01 1.5870266453113615e+01 0 0 1
412 138 1 -8.1999999999999995e-01 1.5444799535422415e+01 1.0949506056174702e+01 1.5431353404849663e+01 0 0 1
414 138 2 4.0999999999999998e-01 1.6240002472164374e+01 1.0500085890116605e+01 1.5838445844022225e+01 0 0 1
233 78 2 4.0999999999999998e-01 1.1023239899644102e+01 1.1846082611559430e+01 1.6969302965679343e+01 1 0 1
514 172 1 -8.1999999999999995e-01 1.3111852340980889e+01 1.5383636328349127e+01 1.8560012319276755e+01 0 0 0
366 122 2 4.0999999999999998e-01 1.2701913462037984e+01 2.8539267327255686e+01 1.7061038291684028e+01 0 -1 1
364 122 1 -8.1999999999999995e-01 1.2920893467010183e+01 2.9396709210815366e+01 1.6595323433155578e+01 0 -1 1
326 109 2 4.0999999999999998e-01 1.4505118510012169e+01 2.9618041550764204e+01 1.0788109411919805e+01 0 -1 0
441 147 2 4.0999999999999998e-01 1.3277064715971926e+01 2.9358828370494145e+01 1.2489257007648618e+01 1 0 1
525 175 2 4.0999999999999998e-01 2.4304772057842065e+01 1.5032255712937538e+01 1.1246033801780278e+01 0 0 1
515 172 2 4.0999999999999998e-01 1.3493990102421753e+01 1.6228263716272924e+01 1.8185012552899362e+01 0 0 0
57 19 2 4.0999999999999998e-01 2.7687159359705760e+01 2.8232879105772398e+01 1.9910102020741441e+01 0 -1 -1
500 167 2 4.0999999999999998e-01 2.3072648464266152e+01 1.5389202432270061e+01 1.3252994536356292e+01 0 0 1
632 211 2 4.0999999999999998e-01 2.2011601464597938e+01 1.3115683337721016e+01 1.3472334182473768e+01 0 0 1
631 211 1 -8.1999999999999995e-01 2.1971973228900879e+01 1.2136455960041767e+01 1.3273354254433654e+01 0 0 1
633 211 2 4.0999999999999998e-01 2.1658912741841512e+01 1.1999706367825384e+01 1.2333491023387591e+01 0 0 1
138 46 2 4.0999999999999998e-01 2.1516105431318124e+01 1.5639023732494039e+01 1.4645246972127183e+01 0 0 0
136 46 1 -8.1999999999999995e-01 2.0825673850303517e+01 1.5569195966620970e+01 1.5365300858310736e+01 0 0 0
137 46 2 4.0999999999999998e-01 2.1193477180789746e+01 1.5942342720079619e+01 1.6217082103579397e+01 0 0 0
381 127 2 4.0999999999999998e-01 1.8448121358482371e+01 1.2924481287201949e+01 1.6490275328489474e+01 0 1 0
518 173 2 4.0999999999999998e-01 1.7359135951834265e+01 1.1816207647977635e+01 1.1718668150786268e+01 0 0 1
455 152 2 4.0999999999999998e-01 2.2085878420875375e+01 1.0565233082399624e+01 1.4333571000701777e+01 -1 0 1
473 158 2 4.0999999999999998e-01 2.9729282831143244e+01 1.2452343595657956e+01 1.0885962432563659e+01 0 0 1
458 153 2 4.0999999999999998e-01 1.9344454663290101e+01 1.5061652414709902e+01 1.5622003173674841e+01 0 0 1
380 127 2 4.0999999999999998e-01 1.7978506002323829e+01 1.1369433808645601e+01 1.6322805112400687e+01 0 1 0
379 127 1 -8.1999999999999995e-01 1.8733580888565690e+01 1.1970691635666222e+01 1.6584338996160341e+01 0 1 0
517 173 1 -8.1999999999999995e-01 1.8168349208979283e+01 1.2189926987267039e+01 1.1265279611989854e+01 0 0 1
522 174 2 4.0999999999999998e-01 1.9376453605564215e+01 1.5111168087933700e+01 1.2743297403315962e+01 0 0 1
521 174 2 4.0999999999999998e-01 1.8240963554271886e+01 1.4377695413363114e+01 1.3659505495048098e+01 0 0 1
520 174 1 -8.1999999999999995e-01 1.8510713631867638e+01 1.4610951255304336e+01 1.2725227102596959e+01 0 0 1
499 167 1 -8.1999999999999995e-01 2.2175524961935778e+01 1.5016191949461387e+01 1.3016178134243102e+01 0 0 1
457 153 1 -8.1999999999999995e-01 1.8428542160377901e+01 1.4664954071824141e+01 1.5683553559595225e+01 0 0 1
459 153 2 4.0999999999999998e-01 1.7758338175826321e+01 1.5393826405719787e+01 1.5823630307165153e+01 0 0 1
501 167 2 4.0999999999999998e-01 2.2058846014241340e+01 1.5033656838825470e+01 1.2023137264077009e+01 0 0 1
78 26 2 4.0999999999999998e-01 2.1829673637941660e+01 1.0658245460703245e+01 1.6271976398545711e+01 0 1 0
741 247 2 4.0999999999999998e-01 1.5722340457801991e+01 2.9468972672140794e+01 1.9757473291433918e+01 0 0 0
76 26 1 -8.1999999999999995e-01 2.1459614584040480e+01 1.1100157846008555e+01 1.7089178836790133e+01 0 1 0
77 26 2 4.0999999999999998e-01 2.0521155644184383e+01 1.1396602306018629e+01 1.6911794754184044e+01 0 1 0
618 206 2 4.0999999999999998e-01 2.0230666120852661e+01 1.2421131021391655e+01 1.0937948403589896e+01 0 0 1
309 103 2 4.0999999999999998e-01 1.8152564094289055e+01 2.2076409912867483e+01 1.9965227473226051e+01 0 0 0
221 74 2 4.0999999999999998e-01 1.9024786875207909e+01 1.1769180963786406e+01 1.8215153149498313e+01 0 0 1
519 173 2 4.0999999999999998e-01 1.8429112661239632e+01 1.3049779660665692e+01 1.1704263859407623e+01 0 0 1
616 206 1 -8.1999999999999995e-01 2.1058568478266729e+01 1.1884565068885282e+01 1.0774472673016685e+01 0 0 1
135 45 2 4.0999999999999998e-01 2.1269864659722803e+01 1.8886380745468131e+01 1.9427187072408081e+01 0 1 -1
234 78 2 4.0999999999999998e-01 2.9184348383028258e+01 1.2204635995598135e+01 1.6729642632359166e+01 0 0 1
488 163 2 4.0999999999999998e-01 2.5215883765803063e+01 1.2765452386321591e+01 1.2996501040047573e+01 0 0 1
487 163 1 -8.1999999999999995e-01 2.4807174435921851e+01 1.2033423798315656e+01 1.3541606912893428e+01 0 0 1
489 163 2 4.0999999999999998e-01 2.3810946296494173e+01 1.2117517046172010e+01 1.3519078855018369e+01 0 0 1
529 177 1 -8.1999999999999995e-01 2.4336716919564665e+01 1.4971079176128315e+01 1.9018830992624416e+01 0 0 1
617 206 2 4.0999999999999998e-01 2.0816201676255019e+01 1.1028453544828185e+01 1.0317985063620162e+01 0 0 1
86 29 2 4.0999999999999998e-01 1.7679114106270113e+01 1.8225787956295832e+01 1.0511432046416905e+01 0 0 0
210 70 2 4.0999999999999998e-01 2.9614146063452182e+01 1.4595062240374084e+01 1.4263846880179193e+01 0 0 1
560 187 2 4.0999999999999998e-01 2.5588526459598437e+01 1.2552513159571713e+01 1.5385349364948496e+01 0 1 1
232 78 1 -8.1999999999999995e-01 1.0131945396977343e+01 1.1475194430065981e+01 1.6708370677973065e+01 1 0 1
526 176 1 -8.1999999999999995e-01 2.2905691903078868e+01 1.4034282468049996e+01 1.6772563978741260e+01 0 0 1
477 159 2 4.0999999999999998e-01 2.8226389502115765e+01 1.5375703504666873e+01 1.5805974466321963e+01 0 0 1
559 187 1 -8.1999999999999995e-01 2.6139795279808176e+01 1.2856135819145475e+01 1.6162501493553172e+01 0 1 1
561 187 2 4.0999999999999998e-01 2.6630224079100500e+01 1.2074891515348881e+01 1.6548750357228577e+01 0 1 1
476 159 2 4.0999999999999998e-01 2.7604559104627796e+01 1.3885997973343777e+01 1.6052676200354085e+01 0 0 1
475 159 1 -8.1999999999999995e-01 2.8440113622273245e+01 1.4435174437204841e+01 1.6070127052436206e+01 0 0 1
711 237 2 4.0999999999999998e-01 2.9175834127236108e+01 1.0703010706266392e+01 1.4412372767509957e+01 0 1 1
324 108 2 4.0999999999999998e-01 2.2713297738794115e+01 1.6989032878101249e+01 1.0272091174377385e+01 0 0 1
472 158 1 -8.1999999999999995e-01 2.8768388460460613e+01 1.2722448128624366e+01 1.0947403167151649e+01 0 0 1
393 131 2 4.0999999999999998e-01 2.6538089883822579e+01 1.0285032287357900e+01 1.8109369615584775e+01 -1 1 0
321 107 2 4.0999999999999998e-01 2.8038996827671831e+01 1.4236762706771238e+01 1.1520828570801648e+01 0 0 1
685 229 1 -8.1999999999999995e-01 1.0513047854375216e+01 1.4935338060122310e+01 1.8357493950200499e+01 1 0 0
319 107 1 -8.1999999999999995e-01 2.7747597779126835e+01 1.5136747545259146e+01 1.1845119787792729e+01 0 0 1
527 176 2 4.0999999999999998e-01 2.3693197976097377e+01 1.3419968076658805e+01 1.6822574566937327e+01 0 0 1
528 176 2 4.0999999999999998e-01 2.2062609352151497e+01 1.3496470267054619e+01 1.6776911613504421e+01 0 0 1
320 107 2 4.0999999999999998e-01 2.8498964312092674e+01 1.5571503750842348e+01 1.2341592563000489e+01 0 0 1
687 229 2 4.0999999999999998e-01 2.9749629059286015e+01 1.4545357146147738e+01 1.7583934572374694e+01 0 0 0
392 131 2 4.0999999999999998e-01 2.8024291604532472e+01 1.0319203330467037e+01 1.7433504296744271e+01 -1 1 0
391 131 1 -8.1999999999999995e-01 2.7121071749068946e+01 1.0748356461245336e+01 1.7441902801536713e+01 -1 1 0
524 175 2 4.0999999999999998e-01 2.5798934071414827e+01 1.4522843631166639e+01 1.1664048465267904e+01 0 0 1
474 158 2 4.0999999999999998e-01 2.8187073303633106e+01 1.1922995773995892e+01 1.0795750204708245e+01 0 0 1
72 24 2 4.0999999999999998e-01 2.5730403484410903e+01 1.0524439237049359e+01 1.2832702957466523e+01 -1 0 0
62 21 2 4.0999999999999998e-01 1.6405309898696022e+01 1.7232207010835062e+01 1.9954463618635540e+01 0 0 -1
523 175 1 -8.1999999999999995e-01 2.4819971158191567e+01 1.4335495376716590e+01 1.1745177452030299e+01 0 0 1
530 177 2 4.0999999999999998e-01 2.3854480515678748e+01 1.4692103432585078e+01 1.8188366999702403e+01 0 0 1
342 114 2 4.0999999999999998e-01 1.3726689304043600e+01 1.6897967796558653e+01 1.0941900469854810e+01 0 0 1
709 237 1 -8.1999999999999995e-01 2.8785936202930444e+01 2.9700608779411347e+01 1.3862310669474526e+01 0 0 1
543 181 2 4.0999999999999998e-01 1.0591459040262084e+01 1.7254137775145477e+01 1.8871844906007205e+01 0 1 0
340 114 1 -8.1999999999999995e-01 1.3752339929118886e+01 1.7227019289588213e+01 1.1885890533490343e+01 0 0 1
63 21 2 4.0999999999999998e-01 1.5090959594812764e+01 1.7264274157890185e+01 1.8985849877578602e+01 0 0 -1
218 73 2 4.0999999999999998e-01 1.4098949545913495e+01 1.8746607075348741e+01 1.7763336039140441e+01 0 0 0
31 11 1 -8.1999999999999995e-01 1.2106755324331489e+01 1.7180815396998039e+01 1.4407330700740008e+01 0 0 0
569 190 2 4.0999999999999998e-01 1.6243048467200193e+01 1.8882205029630736e+01 1.1391263742376269e+01 0 0 1
341 114 2 4.0999999999999998e-01 1.3059867302672657e+01 1.7937729403222775e+01 1.2010077467185457e+01 0 0 1
363 121 2 4.0999999999999998e-01 1.1538635416172614e+01 2.0080240592825234e+01 1.0268510839181046e+01 0 0 1
220 74 1 -8.1999999999999995e-01 1.9403889425710037e+01 1.1786605286312097e+01 1.9140370715355164e+01 0 0 1
19 7 1 -8.1999999999999995e-01 1.1639243030819898e+01 1.9132357532610875e+01 1.2154452772370167e+01 1 0 0
21 7 2 4.0999999999999998e-01 1.0675065703254781e+01 1.8896551528457948e+01 1.2276136608642460e+01 1 0 0
32 11 2 4.0999999999999998e-01 1.1628706653634254e+01 1.7981013679468074e+01 1.4045113438619438e+01 0 0 0
20 7 2 4.0999999999999998e-01 1.1890410977328170e+01 1.9852637082900436e+01 1.2801107111903226e+01 1 0 0
541 181 1 -8.1999999999999995e-01 1.0820542109891159e+01 1.8023063117801808e+01 1.9468773638668512e+01 0 1 0
542 181 2 4.0999999999999998e-01 1.1410168711421434e+01 1.8663239737462192e+01 1.8976265342646066e+01 0 1 0
672 224 2 4.0999999999999998e-01 1.5237374846798637e+01 1.7184682475871671e+01 1.4216248831567668e+01 0 0 1
84 28 2 4.0999999999999998e-01 1.6172782870684227e+01 2.0255048481719932e+01 1.8112741214029818e+01 1 0 0
83 28 2 4.0999999999999998e-01 1.5806869999764503e+01 2.0351870793246988e+01 1.9701291032335632e+01 1 0 0
82 28 1 -8.1999999999999995e-01 1.5624585924131258e+01 2.0736749828303367e+01 1.8796475832088355e+01 1 0 0
656 219 2 4.0999999999999998e-01 2.3893664571473241e+01 2.4946979877355012e+01 1.0918346643141444e+01 0 0 1
679 227 1 -8.1999999999999995e-01 1.2674552718155660e+01 1.9785316988618625e+01 1.8426241127819086e+01 1 0 1
680 227 2 4.0999999999999998e-01 1.3046093742452303e+01 1.9744805866911712e+01 1.9353800372821830e+01 1 0 1
681 227 2 4.0999999999999998e-01 1.2485637854574641e+01 2.0737018752061594e+01 1.8184116688716578e+01 1 0 1
568 190 1 -8.1999999999999995e-01 1.6390409692734902e+01 1.9817726795866569e+01 1.1070119036199634e+01 0 0 1
33 11 2 4.0999999999999998e-01 1.3072503639862919e+01 1.7225458809651542e+01 1.4151622386341410e+01 0 0 0
272 91 2 4.0999999999999998e-01 1.5734416695872067e+01 2.0998429718038714e+01 1.4227725566100798e+01 0 1 0
271 91 1 -8.1999999999999995e-01 1.5275793085497778e+01 2.0401109123113482e+01 1.3569757478897428e+01 0 1 0
163 55 1 -8.1999999999999995e-01 1.7432350999910632e+01 2.2189151083426236e+01 1.4405690294200323e+01 1 0 0
165 55 2 4.0999999999999998e-01 1.7941265447471146e+01 2.2288104378665228e+01 1.5260830224554971e+01 1 0 0
273 91 2 4.0999999999999998e-01 1.5783654675318004e+01 2.0402065835833515e+01 1.2708290520732033e+01 0 1 0
673 225 1 -8.1999999999999995e-01 1.4389893716331137e+01 2.2760441969747006e+01 1.7402527655402025e+01 0 0 1
408 136 2 4.0999999999999998e-01 1.7919920421513222e+01 2.0678252106270495e+01 1.1602710620032733e+01 0 0 1
674 225 2 4.0999999999999998e-01 1.4843609889813852e+01 2.1951171229127617e+01 1.7775722739052540e+01 0 0 1
670 224 1 -8.1999999999999995e-01 1.4881731930608545e+01 1.7809854870498910e+01 1.4911035707162057e+01 0 0 1
671 224 2 4.0999999999999998e-01 1.5150178945924395e+01 1.8746400308926120e+01 1.4685495462835840e+01 0 0 1
642 214 2 4.0999999999999998e-01 1.3645692840435338e+01 2.0616306208023143e+01 1.4158292166874670e+01 0 0 1
640 214 1 -8.1999999999999995e-01 1.2659609223570543e+01 2.0714982070082591e+01 1.4292276078034602e+01 0 0 1
213 71 2 4.0999999999999998e-01 2.9632750637972528e+01 2.0133799415737521e+01 1.5861730523236712e+01 -1 0 -1
641 214 2 4.0999999999999998e-01 1.2454626469405692e+01 2.1649531126951700e+01 1.4583221372833792e+01 0 0 1
173 58 2 4.0999999999999998e-01 1.3298447766596954e+01 2.3194061877972992e+01 1.2072712399170198e+01 0 0 1
684 228 2 4.0999999999999998e-01 1.3206851978483169e+01 2.2975842913984344e+01 1.5942686014526355e+01 0 0 1
404 135 2 4.0999999999999998e-01 2.5405622505678647e+01 2.7793586195813354e+01 1.2523695403084181e+01 -1 -1 1
269 90 2 4.0999999999999998e-01 2.5203899184812919e+01 1.6425047068947222e+01 1.9431675968745360e+01 0 0 0
242 81 2 4.0999999999999998e-01 1.8914148977225633e+01 1.8291972590433922e+01 1.2651322744748525e+01 0 0 0
164 55 2 4.0999999999999998e-01 1.7267760883072761e+01 2.3092399849766700e+01 1.4009327629801172e+01 1 0 0
406 136 1 -8.1999999999999995e-01 1.8521257940844350e+01 2.1362131125477514e+01 1.2015932871722230e+01 0 0 1
407 136 2 4.0999999999999998e-01 1.8175246380464561e+01 2.1606415620728569e+01 1.2921831057376924e+01 0 0 1
732 244 2 4.0999999999999998e-01 1.9286141566373839e+01 2.1497184418521751e+01 1.0417380124770125e+01 0 0 1
241 81 1 -8.1999999999999995e-01 1.9414443569075512e+01 1.8770726224199933e+01 1.3372814075689309e+01 0 0 0
36 12 2 4.0999999999999998e-01 2.2331335864719019e+01 2.0976745605483121e+01 1.8042469073805314e+01 0 0 -1
11 4 2 4.0999999999999998e-01 1.5414450865771695e+01 2.5276357217596317e+01 1.1163886704642584e+01 0 -1 0
251 84 2 4.0999999999999998e-01 2.4010077983957956e+01 2.6154911112821914e+01 1.6296047060202898e+01 0 0 0
694 232 1 -8.1999999999999995e-01 2.2347781339771167e+01 2.2430084158723105e+01 1.1263278638450993e+01 0 0 1
243 81 2 4.0999999999999998e-01 1.9550246851718498e+01 1.9725237913243937e+01 1.3107269130638207e+01 0 0 0
264 88 2 4.0999999999999998e-01 1.9098124179082660e+01 1.8255958803793199e+01 1.8216477193553864e+01 0 0 1
646 216 1 -8.1999999999999995e-01 1.9263283181868907e+01 2.1074200190853144e+01 1.8905139115275464e+01 0 0 1
647 216 2 4.0999999999999998e-01 2.0040667813202077e+01 2.1273163014205764e+01 1.8308364625043399e+01 0 0 1
696 232 2 4.0999999999999998e-01 2.1715086256822143e+01 2.2953960432721466e+01 1.1833630171678605e+01 0 0 1
262 88 1 -8.1999999999999995e-01 1.8316760976945556e+01 1.8720417204791858e+01 1.7799584515085762e+01 0 0 1
263 88 2 4.0999999999999998e-01 1.8149323889946068e+01 1.8339997792389813e+01 1.6890025771298770e+01 0 0 1
7 3 1 -8.1999999999999995e-01 1.7939206982098234e+01 1.7509691114571549e+01 1.5510520582847153e+01 0 0 0
9 3 2 4.0999999999999998e-01 1.8452845457291176e+01 1.7870431378312279e+01 1.4732001638640495e+01 0 0 0
507 169 2 4.0999999999999998e-01 2.1399245358131161e+01 2.0197486859057911e+01 1.5231607874682730e+01 0 0 1
505 169 1 -8.1999999999999995e-01 2.1402326444453792e+01 1.9202614976963389e+01 1.5332948806786641e+01 0 0 1
506 169 2 4.0999999999999998e-01 2.0806740442440834e+01 1.8795198723423162e+01 1.4640605915154634e+01 0 0 1
91 31 1 -8.1999999999999995e-01 2.0384610638067159e+01 2.3645619100333576e+01 1.2731025016631879e+01 -1 0 0
8 3 2 4.0999999999999998e-01 1.7066251681601400e+01 1.7140474646332038e+01 1.5191651791896671e+01 0 0 0
93 31 2 4.0999999999999998e-01 1.9975465135622088e+01 2.3934148560432881e+01 1.3596704598760171e+01 -1 0 0
34 12 1 -8.1999999999999995e-01 2.1553029083272261e+01 2.1430544474460849e+01 1.7608470887050945e+01 0 0 -1
248 83 2 4.0999999999999998e-01 2.0782322782584046e+01 2.2213718159418306e+01 1.4588370417623405e+01 0 0 0
247 83 1 -8.1999999999999995e-01 2.1654317042006159e+01 2.1891316764897205e+01 1.4956789467396622e+01 0 0 0
403 135 1 -8.1999999999999995e-01 2.5231587480839895e+01 2.7112234489280276e+01 1.3234695655296129e+01 -1 -1 1
695 232 2 4.0999999999999998e-01 2.3234532170154964e+01 2.2891721951549588e+01 1.1238509452064363e+01 0 0 1
317 106 2 4.0999999999999998e-01 2.2294472330425677e+01 1.8276017540187141e+01 1.6305275838304826e+01 0 0 1
249 83 2 4.0999999999999998e-01 2.2400666428913880e+01 2.2431166347951880e+01 1.4567464036260176e+01 0 0 0
648 216 2 4.0999999999999998e-01 1.8897657690348076e+01 2.0169617742090459e+01 1.8685822680813367e+01 0 0 1
35 12 2 4.0999999999999998e-01 2.1715669713689962e+01 2.1502902502181421e+01 1.6624416912238939e+01 0 0 -1
200 67 2 4.0999999999999998e-01 2.3177434379360101e+01 1.8608960389092104e+01 1.8229879934997626e+01 0 0 0
316 106 1 -8.1999999999999995e-01 2.2732188112506822e+01 1.7581005677471744e+01 1.6875728092664055e+01 0 0 1
348 116 2 4.0999999999999998e-01 2.8141359958759274e+01 2.6014472587472515e+01 1.3179802517757654e+01 0 -1 1
199 67 1 -8.1999999999999995e-01 2.3181783373702768e+01 1.9396828805947766e+01 1.8845749479768141e+01 0 0 0
85 29 1 -8.1999999999999995e-01 1.8111941737439953e+01 1.7511789982343394e+01 1.1061810592511788e+01 0 0 0
558 186 2 4.0999999999999998e-01 1.8248234941055415e+01 2.2072901637791844e+01 1.7605373631649798e+01 0 1 1
598 200 1 -8.1999999999999995e-01 2.7269462103662931e+01 2.7144995603282339e+01 1.5954086890435246e+01 0 0 0
38 13 2 4.0999999999999998e-01 2.5818719509872672e+01 2.0857527779452418e+01 1.9351521119201507e+01 -1 0 0
51 17 2 4.0999999999999998e-01 2.5230276623822341e+01 1.7239370560138809e+01 1.4214110679301800e+01 0 0 0
50 17 2 4.0999999999999998e-01 2.6610612655336212e+01 1.7088904235715379e+01 1.5073639760251215e+01 0 0 0
49 17 1 -8.1999999999999995e-01 2.5616105892179558e+01 1.6987830266878529e+01 1.5101755714808267e+01 0 0 0
603 201 2 4.0999999999999998e-01 2.8070412118088029e+01 1.7478734278991038e+01 1.1304698523411865e+01 -1 0 1
725 242 2 4.0999999999999998e-01 2.8461763717115041e+01 2.2227394915994829e+01 1.8748502109533110e+01 -1 0 0
438 146 2 4.0999999999999998e-01 2.4087022144942697e+01 1.7303464266249144e+01 1.2011172104593548e+01 0 1 1
344 115 2 4.0999999999999998e-01 2.2889308310717006e+01 2.0310639742217923e+01 1.1546295402228612e+01 0 0 1
436 146 1 -8.1999999999999995e-01 2.4181262902923567e+01 1.7634284780904704e+01 1.2950175382829267e+01 0 1 1
437 146 2 4.0999999999999998e-01 2.4028904120843592e+01 1.8622387070889040e+01 1.2972328932279053e+01 0 1 1
345 115 2 4.0999999999999998e-01 2.3984107681303129e+01 2.1109218993801065e+01 1.2457582175079885e+01 0 0 1
211 71 1 -8.1999999999999995e-01 2.8858362931102640e+01 2.0113442946768011e+01 1.6494153208861412e+01 -1 0 -1
212 71 2 4.0999999999999998e-01 2.8765082673873827e+01 2.1005834645546443e+01 1.6935724938922100e+01 -1 0 -1
318 106 2 4.0999999999999998e-01 2.3397719389917349e+01 1.7072267157829899e+01 1.6329557103263241e+01 0 0 1
724 242 1 -8.1999999999999995e-01 2.8337231365517852e+01 2.2546310761326684e+01 1.7808909689649543e+01 -1 0 0
270 90 2 4.0999999999999998e-01 2.6080485259189253e+01 1.7709282031472306e+01 1.8932581546337470e+01 0 0 0
343 115 1 -8.1999999999999995e-01 2.3716266162722839e+01 2.0214417005209576e+01 1.2100309869033403e+01 0 0 1
290 97 2 4.0999999999999998e-01 2.4115212868188152e+01 2.3284279194809940e+01 1.3255525005348824e+01 0 0 0
289 97 1 -8.1999999999999995e-01 2.4561908323200594e+01 2.2396663899189569e+01 1.3143046124701440e+01 0 0 0
602 201 2 4.0999999999999998e-01 2.7725963936033331e+01 1.9024151380320660e+01 1.1704446752103145e+01 -1 0 1
18 6 2 4.0999999999999998e-01 2.8597645826649973e+01 1.7802636226628969e+01 1.5781680367372385e+01 -1 0 0
285 95 2 4.0999999999999998e-01 2.7509443908838641e+01 1.9154744764833538e+01 1.7766924138985235e+01 0 0 0
284 95 2 4.0999999999999998e-01 2.5968648508762680e+01 1.9412855459484078e+01 1.7291439743312925e+01 0 0 0
222 74 2 4.0999999999999998e-01 2.0239389401530556e+01 1.2336088180690533e+01 1.9147952445705705e+01 0 0 1
17 6 2 4.0999999999999998e-01 2.8311322639565667e+01 1.8308202386930141e+01 1.4255515609045066e+01 -1 0 0
16 6 1 -8.1999999999999995e-01 2.8157111442869493e+01 1.7571666134842761e+01 1.4914137137445335e+01 -1 0 0
601 201 1 -8.1999999999999995e-01 2.8359625425183346e+01 1.8264586602310281e+01 1.1851361882953782e+01 -1 0 1
283 95 1 -8.1999999999999995e-01 2.6552665334238988e+01 1.9144735017070968e+01 1.8057654519004533e+01 0 0 0
545 182 2 4.0999999999999998e-01 2.8076919414208383e+01 2.0871938211969294e+01 1.2332638786534208e+01 -1 0 1
291 97 2 4.0999999999999998e-01 2.5478178344319403e+01 2.2431673585529865e+01 1.3542136342531482e+01 0 0 0
386 129 2 4.0999999999999998e-01 2.5803743351654234e+01 2.0468880487588812e+01 1.1417597435317946e+01 0 0 1
385 129 1 -8.1999999999999995e-01 2.6763207274293428e+01 2.0411449566203764e+01 1.1141589885200473e+01 0 0 1
544 182 1 -8.1999999999999995e-01 2.8819777302286809e+01 2.1304308875493106e+01 1.2843782024291480e+01 -1 0 1
546 182 2 4.0999999999999998e-01 2.8440782323481358e+01 2.1810660821831494e+01 1.3618391780824451e+01 -1 0 1
131 44 2 4.0999999999999998e-01 2.5129964267840720e+01 2.2871455512534123e+01 1.7983605630511100e+01 0 0 0
159 53 2 4.0999999999999998e-01 2.6829303699352458e+01 2.2926827952945494e+01 1.5435405399408076e+01 -1 -1 0
157 53 1 -8.1999999999999995e-01 2.7124826425615694e+01 2.2742377345316189e+01 1.4498018815987713e+01 -1 -1 0
322 108 1 -8.1999999999999995e-01 2.3629551623466057e+01 1.6701960154367164e+01 1.0551585840609690e+01 0 0 1
387 129 2 4.0999999999999998e-01 2.6963897392209098e+01 2.1134923015636190e+01 1.0481014590995290e+01 0 0 1
268 90 1 -8.1999999999999995e-01 2.5890768400693659e+01 1.7099624703394525e+01 1.9702240805406987e+01 0 0 0
339 113 2 4.0999999999999998e-01 2.9331785076850210e+01 2.7275887451432681e+01 1.8375223290100045e+01 -1 -1 -1
468 156 2 4.0999999999999998e-01 1.6116327281653806e+01 1.1151787848347956e+01 1.3601126473709092e+01 0 0 1
10 4 1 -8.1999999999999995e-01 1.4599444424324910e+01 2.5761628831108673e+01 1.1480627910834372e+01 0 -1 0
600 200 2 4.0999999999999998e-01 2.7008202438422181e+01 2.6309468839055334e+01 1.5470674258509250e+01 0 0 0
675 225 2 4.0999999999999998e-01 1.4382654782050450e+01 2.3485740213746119e+01 1.8090961628862566e+01 0 0 1
12 4 2 4.0999999999999998e-01 1.3931570184068940e+01 2.5101904693395326e+01 1.1825240127319452e+01 0 -1 0
191 64 2 4.0999999999999998e-01 2.9559242771621413e+01 2.3944481213366082e+01 1.7673466679271836e+01 0 0 0
190 64 1 -8.1999999999999995e-01 1.0622314827101269e+01 2.4457317511184840e+01 1.7359952214902307e+01 1 0 0
192 64 2 4.0999999999999998e-01 1.1227083419047347e+01 2.3849890430193717e+01 1.6844842954623815e+01 1 0 0
14 5 2 4.0999999999999998e-01 1.5831365430797193e+01 2.4069993636543956e+01 1.9530260988532092e+01 0 -2 -2
161 54 2 4.0999999999999998e-01 2.3995787176945413e+01 2.8960644369458713e+01 1.5631911340646583e+01 -1 -1 0
666 222 2 4.0999999999999998e-01 1.0695528655940603e+01 2.5042448800804042e+01 1.9450292546790426e+01 0 0 1
735 245 2 4.0999999999999998e-01 1.2623562332687513e+01 2.7330191697634845e+01 1.4040257111558585e+01 0 0 0
113 38 2 4.0999999999999998e-01 1.1154875345811469e+01 2.6058962868359544e+01 1.0206559635169214e+01 1 0 0
492 164 2 4.0999999999999998e-01 1.5464764796768925e+01 2.6948535789989634e+01 1.2636544599386774e+01 0 0 1
490 164 1 -8.1999999999999995e-01 1.5796739443867112e+01 2.7635297859473745e+01 1.3283229165677524e+01 0 0 1
491 164 2 4.0999999999999998e-01 1.5027813033752453e+01 2.7993895424322027e+01 1.3812577550269335e+01 0 0 1
740 247 2 4.0999999999999998e-01 1.5284413635118671e+01 2.7975388938179208e+01 1.9263322035992843e+01 0 0 0
420 140 2 4.0999999999999998e-01 1.5270613515145346e+01 2.4919161149403941e+01 1.4566566370553380e+01 0 -1 1
733 245 1 -8.1999999999999995e-01 1.3041900915846458e+01 2.8231672177997467e+01 1.3929015028286608e+01 0 0 0
747 249 2 4.0999999999999998e-01 2.9822846251646673e+01 2.7656840089371514e+01 1.0922351585310132e+01 0 0 1
734 245 2 4.0999999999999998e-01 1.2957267133330152e+01 2.8746016964131009e+01 1.4782441096088586e+01 0 0 0
745 249 1 -8.1999999999999995e-01 2.9195964297229381e+01 2.7565265015973246e+01 1.1696097228110508e+01 0 0 1
418 140 1 -8.1999999999999995e-01 1.5386732893649192e+01 2.5183357858995912e+01 1.5524045054924144e+01 0 -1 1
746 249 2 4.0999999999999998e-01 2.8936942005188399e+01 2.8473604102252160e+01 1.2024543570345335e+01 0 0 1
400 134 1 -8.1999999999999995e-01 2.9864092486555521e+01 2.7594660235349821e+01 1.5287179193091090e+01 -1 0 1
198 66 2 4.0999999999999998e-01 1.1063906437100531e+01 2.6192675232816001e+01 1.7454672868684309e+01 0 -1 0
682 228 1 -8.1999999999999995e-01 1.2362981375083942e+01 2.3360402047784461e+01 1.5568458749158712e+01 0 0 1
196 66 1 -8.1999999999999995e-01 1.1312519922140327e+01 2.7073485412657448e+01 1.7857681318818493e+01 0 -1 0
197 66 2 4.0999999999999998e-01 1.2074432102392153e+01 2.6946277645772305e+01 1.8492786106705566e+01 0 -1 0
174 58 2 4.0999999999999998e-01 1.2316503628171667e+01 2.4498872576718234e+01 1.2076149785474989e+01 0 0 1
172 58 1 -8.1999999999999995e-01 1.2957303236960200e+01 2.3957781557094613e+01 1.2620801890066701e+01 0 0 1
401 134 2 4.0999999999999998e-01 1.0725811686185054e+01 2.7569535748856069e+01 1.6088408926747867e+01 0 0 1
683 228 2 4.0999999999999998e-01 1.2569963674527800e+01 2.3866693391792943e+01 1.4731275037372306e+01 0 0 1
373 125 1 -8.1999999999999995e-01 1.3818324342039734e+01 2.6768276357432619e+01 1.9446300964102775e+01 0 0 -1
419 140 2 4.0999999999999998e-01 1.5188205845094144e+01 2.4399567477834111e+01 1.6112525103399960e+01 0 -1 1
375 125 2 4.0999999999999998e-01 1.4100324620322134e+01 2.5816592007840178e+01 1.9568049380545030e+01 0 0 -1
13 5 1 -8.1999999999999995e-01 1.4886632735249130e+01 2.4075140310020302e+01 1.9858137578352441e+01 0 -2 -2
61 21 1 -8.1999999999999995e-01 1.5431923774861307e+01 1.7011769202291681e+01 1.9891408118756281e+01 0 0 -1
112 38 1 -8.1999999999999995e-01 1.1434955768619965e+01 2.5099125404470495e+01 1.0188783751202150e+01 1 0 0
739 247 1 -8.1999999999999995e-01 1.6054571006605137e+01 2.8600850618573851e+01 1.9388641538601043e+01 0 0 0
254 85 2 4.0999999999999998e-01 2.3078834346411007e+01 1.0826435222646879e+01 1.0788537333670144e+01 0 1 0
405 135 2 4.0999999999999998e-01 2.5147942006879020e+01 2.7568737433631583e+01 1.4120504963578252e+01 -1 -1 1