600
Atoms. Timestep: 0
O 0 0 0
H 0 0 -1
H 1 0 0
O 0 0 3
H 0 0 4
H 1 0 3
O 10 0 0
H 10 0 -1
H 11 0 0
O 10 0 3
H 10 0 4
H 11 0 3
O 20 0 0
H 20 0 -1
H 21 0 0
O 20 0 3
H 20 0 4
H 21 0 3
O 30 0 0
H 30 0 -1
H 31 0 0
O 30 0 3
H 30 0 4
H 31 0 3
O 40 0 0
H 40 0 -1
H 41 0 0
O 40 0 3
H 40 0 4
H 41 0 3
O 0 10 0
H 0 10 -1
H 1 10 0
O 0 10 3
H 0 10 4
H 1 10 3
O 10 10 0
H 10 10 -1
H 11 10 0
O 10 10 3
H 10 10 4
H 11 10 3
O 20 10 0
H 20 10 -1
H 21 10 0
O 20 10 3
H 20 10 4
H 21 10 3
O 30 10 0
H 30 10 -1
H 31 10 0
O 30 10 3
H 30 10 4
H 31 10 3
O 40 10 0
H 40 10 -1
H 41 10 0
O 40 10 3
H 40 10 4
H 41 10 3
O 0 20 0
H 0 20 -1
H 1 20 0
O 0 20 3
H 0 20 4
H 1 20 3
O 10 20 0
H 10 20 -1
H 11 20 0
O 10 20 3
H 10 20 4
H 11 20 3
O 20 20 0
H 20 20 -1
H 21 20 0
O 20 20 3
H 20 20 4
H 21 20 3
O 30 20 0
H 30 20 -1
H 31 20 0
O 30 20 3
H 30 20 4
H 31 20 3
O 40 20 0
H 40 20 -1
H 41 20 0
O 40 20 3
H 40 20 4
H 41 20 3
O 0 30 0
H 0 30 -1
H 1 30 0
O 0 30 3
H 0 30 4
H 1 30 3
O 10 30 0
H 10 30 -1
H 11 30 0
O 10 30 3
H 10 30 4
H 11 30 3
O 20 30 0
H 20 30 -1
H 21 30 0
O 20 30 3
H 20 30 4
H 21 30 3
O 30 30 0
H 30 30 -1
H 31 30 0
O 30 30 3
H 30 30 4
H 31 30 3
O 40 30 0
H 40 30 -1
H 41 30 0
O 40 30 3
H 40 30 4
H 41 30 3
O 0 40 0
H 0 40 -1
H 1 40 0
O 0 40 3
H 0 40 4
H 1 40 3
O 10 40 0
H 10 40 -1
H 11 40 0
O 10 40 3
H 10 40 4
H 11 40 3
O 20 40 0
H 20 40 -1
H 21 40 0
O 20 40 3
H 20 40 4
H 21 40 3
O 30 40 0
H 30 40 -1
H 31 40 0
O 30 40 3
H 30 40 4
H 31 40 3
O 40 40 0
H 40 40 -1
H 41 40 0
O 40 40 3
H 40 40 4
H 41 40 3
O 0 0 10
H 0 0 9
H 1 0 10
O 0 0 13
H 0 0 14
H 1 0 13
O 10 0 10
H 10 0 9
H 11 0 10
O 10 0 13
H 10 0 14
H 11 0 13
O 20 0 10
H 20 0 9
H 21 0 10
O 20 0 13
H 20 0 14
H 21 0 13
O 30 0 10
H 30 0 9
H 31 0 10
O 30 0 13
H 30 0 14
H 31 0 13
O 40 0 10
H 40 0 9
H 41 0 10
O 40 0 13
H 40 0 14
H 41 0 13
O 0 10 10
H 0 10 9
H 1 10 10
O 0 10 13
H 0 10 14
H 1 10 13
O 10 10 10
H 10 10 9
H 11 10 10
O 10 10 13
H 10 10 14
H 11 10 13
O 20 10 10
H 20 10 9
H 21 10 10
O 20 10 13
H 20 10 14
H 21 10 13
O 30 10 10
H 30 10 9
H 31 10 10
O 30 10 13
H 30 10 14
H 31 10 13
O 40 10 10
H 40 10 9
H 41 10 10
O 40 10 13
H 40 10 14
H 41 10 13
O 0 20 10
H 0 20 9
H 1 20 10
O 0 20 13
H 0 20 14
H 1 20 13
O 10 20 10
H 10 20 9
H 11 20 10
O 10 20 13
H 10 20 14
H 11 20 13
O 20 20 10
H 20 20 9
H 21 20 10
O 20 20 13
H 20 20 14
H 21 20 13
O 30 20 10
H 30 20 9
H 31 20 10
O 30 20 13
H 30 20 14
H 31 20 13
O 40 20 10
H 40 20 9
H 41 20 10
O 40 20 13
H 40 20 14
H 41 20 13
O 0 30 10
H 0 30 9
H 1 30 10
O 0 30 13
H 0 30 14
H 1 30 13
O 10 30 10
H 10 30 9
H 11 30 10
O 10 30 13
H 10 30 14
H 11 30 13
O 20 30 10
H 20 30 9
H 21 30 10
O 20 30 13
H 20 30 14
H 21 30 13
O 30 30 10
H 30 30 9
H 31 30 10
O 30 30 13
H 30 30 14
H 31 30 13
O 40 30 10
H 40 30 9
H 41 30 10
O 40 30 13
H 40 30 14
H 41 30 13
O 0 40 10
H 0 40 9
H 1 40 10
O 0 40 13
H 0 40 14
H 1 40 13
O 10 40 10
H 10 40 9
H 11 40 10
O 10 40 13
H 10 40 14
H 11 40 13
O 20 40 10
H 20 40 9
H 21 40 10
O 20 40 13
H 20 40 14
H 21 40 13
O 30 40 10
H 30 40 9
H 31 40 10
O 30 40 13
H 30 40 14
H 31 40 13
O 40 40 10
H 40 40 9
H 41 40 10
O 40 40 13
H 40 40 14
H 41 40 13
O 0 0 20
H 0 0 19
H 1 0 20
O 0 0 23
H 0 0 24
H 1 0 23
O 10 0 20
H 10 0 19
H 11 0 20
O 10 0 23
H 10 0 24
H 11 0 23
O 20 0 20
H 20 0 19
H 21 0 20
O 20 0 23
H 20 0 24
H 21 0 23
O 30 0 20
H 30 0 19
H 31 0 20
O 30 0 23
H 30 0 24
H 31 0 23
O 40 0 20
H 40 0 19
H 41 0 20
O 40 0 23
H 40 0 24
H 41 0 23
O 0 10 20
H 0 10 19
H 1 10 20
O 0 10 23
H 0 10 24
H 1 10 23
O 10 10 20
H 10 10 19
H 11 10 20
O 10 10 23
H 10 10 24
H 11 10 23
O 20 10 20
H 20 10 19
H 21 10 20
O 20 10 23
H 20 10 24
H 21 10 23
O 30 10 20
H 30 10 19
H 31 10 20
O 30 10 23
H 30 10 24
H 31 10 23
O 40 10 20
H 40 10 19
H 41 10 20
O 40 10 23
H 40 10 24
H 41 10 23
O 0 20 20
H 0 20 19
H 1 20 20
O 0 20 23
H 0 20 24
H 1 20 23
O 10 20 20
H 10 20 19
H 11 20 20
O 10 20 23
H 10 20 24
H 11 20 23
O 20 20 20
H 20 20 19
H 21 20 20
O 20 20 23
H 20 20 24
H 21 20 23
O 30 20 20
H 30 20 19
H 31 20 20
O 30 20 23
H 30 20 24
H 31 20 23
O 40 20 20
H 40 20 19
H 41 20 20
O 40 20 23
H 40 20 24
H 41 20 23
O 0 30 20
H 0 30 19
H 1 30 20
O 0 30 23
H 0 30 24
H 1 30 23
O 10 30 20
H 10 30 19
H 11 30 20
O 10 30 23
H 10 30 24
H 11 30 23
O 20 30 20
H 20 30 19
H 21 30 20
O 20 30 23
H 20 30 24
H 21 30 23
O 30 30 20
H 30 30 19
H 31 30 20
O 30 30 23
H 30 30 24
H 31 30 23
O 40 30 20
H 40 30 19
H 41 30 20
O 40 30 23
H 40 30 24
H 41 30 23
O 0 40 20
H 0 40 19
H 1 40 20
O 0 40 23
H 0 40 24
H 1 40 23
O 10 40 20
H 10 40 19
H 11 40 20
O 10 40 23
H 10 40 24
H 11 40 23
O 20 40 20
H 20 40 19
H 21 40 20
O 20 40 23
H 20 40 24
H 21 40 23
O 30 40 20
H 30 40 19
H 31 40 20
O 30 40 23
H 30 40 24
H 31 40 23
O 40 40 20
H 40 40 19
H 41 40 20
O 40 40 23
H 40 40 24
H 41 40 23
O 0 0 30
H 0 0 29
H 1 0 30
O 0 0 33
H 0 0 34
H 1 0 33
O 10 0 30
H 10 0 29
H 11 0 30
O 10 0 33
H 10 0 34
H 11 0 33
O 20 0 30
H 20 0 29
H 21 0 30
O 20 0 33
H 20 0 34
H 21 0 33
O 30 0 30
H 30 0 29
H 31 0 30
O 30 0 33
H 30 0 34
H 31 0 33
O 40 0 30
H 40 0 29
H 41 0 30
O 40 0 33
H 40 0 34
H 41 0 33
O 0 10 30
H 0 10 29
H 1 10 30
O 0 10 33
H 0 10 34
H 1 10 33
O 10 10 30
H 10 10 29
H 11 10 30
O 10 10 33
H 10 10 34
H 11 10 33
O 20 10 30
H 20 10 29
H 21 10 30
O 20 10 33
H 20 10 34
H 21 10 33
O 30 10 30
H 30 10 29
H 31 10 30
O 30 10 33
H 30 10 34
H 31 10 33
O 40 10 30
H 40 10 29
H 41 10 30
O 40 10 33
H 40 10 34
H 41 10 33
O 0 20 30
H 0 20 29
H 1 20 30
O 0 20 33
H 0 20 34
H 1 20 33
O 10 20 30
H 10 20 29
H 11 20 30
O 10 20 33
H 10 20 34
H 11 20 33
O 20 20 30
H 20 20 29
H 21 20 30
O 20 20 33
H 20 20 34
H 21 20 33
O 30 20 30
H 30 20 29
H 31 20 30
O 30 20 33
H 30 20 34
H 31 20 33
O 40 20 30
H 40 20 29
H 41 20 30
O 40 20 33
H 40 20 34
H 41 20 33
O 0 30 30
H 0 30 29
H 1 30 30
O 0 30 33
H 0 30 34
H 1 30 33
O 10 30 30
H 10 30 29
H 11 30 30
O 10 30 33
H 10 30 34
H 11 30 33
O 20 30 30
H 20 30 29
H 21 30 30
O 20 30 33
H 20 30 34
H 21 30 33
O 30 30 30
H 30 30 29
H 31 30 30
O 30 30 33
H 30 30 34
H 31 30 33
O 40 30 30
H 40 30 29
H 41 30 30
O 40 30 33
H 40 30 34
H 41 30 33
O 0 40 30
H 0 40 29
H 1 40 30
O 0 40 33
H 0 40 34
H 1 40 33
O 10 40 30
H 10 40 29
H 11 40 30
O 10 40 33
H 10 40 34
H 11 40 33
O 20 40 30
H 20 40 29
H 21 40 30
O 20 40 33
H 20 40 34
H 21 40 33
O 30 40 30
H 30 40 29
H 31 40 30
O 30 40 33
H 30 40 34
H 31 40 33
O 40 40 30
H 40 40 29
H 41 40 30
O 40 40 33
H 40 40 34
H 41 40 33
600
Atoms. Timestep: 10
O 0.0289939 3.86583e-18 -0.0537899
H -0.476396 -3.23984e-17 -0.965446
H 1.01621 -2.96869e-17 -0.427883
O 0.0289939 2.76915e-18 3.05379
H -0.476396 -2.27267e-17 3.96545
H 1.01621 -2.31848e-17 3.42788
O 10.029 -2.23199e-18 -0.0537899
H 9.5236 1.8625e-17 -0.965446
H 11.0162 1.54012e-17 -0.427884
O 10.029 -3.10153e-18 3.05379
H 9.5236 2.40547e-17 3.96545
H 11.0162 2.62022e-17 3.42788
O 20.029 -2.90269e-18 -0.0537898
H 19.5236 2.31688e-17 -0.965446
H 21.0162 2.55712e-17 -0.427883
O 20.029 -4.94827e-18 3.05379
H 19.5236 4.04426e-17 3.96545
H 21.0162 3.8761e-17 3.42788
O 30.029 1.59865e-18 -0.0537898
H 29.5236 -1.5415e-17 -0.965447
H 31.0162 -1.76332e-17 -0.427883
O 30.029 -4.02382e-21 3.05379
H 29.5236 -5.62206e-19 3.96545
H 31.0162 -4.85561e-18 3.42788
O 40.029 1.73982e-18 -0.0537899
H 39.5236 -2.02329e-17 -0.965447
H 41.0162 -1.27441e-17 -0.427883
O 40.029 -1.33174e-19 3.05379
H 39.5236 -3.68334e-18 3.96545
H 41.0162 1.6892e-18 3.42788
O 0.0289939 10 -0.0537899
H -0.476396 10 -0.965446
H 1.01621 10 -0.427883
O 0.0289939 10 3.05379
H -0.476396 10 3.96545
H 1.01621 10 3.42788
O 10.029 10 -0.0537899
H 9.5236 10 -0.965446
H 11.0162 10 -0.427884
O 10.029 10 3.05379
H 9.5236 10 3.96545
H 11.0162 10 3.42788
O 20.029 10 -0.0537898
H 19.5236 10 -0.965446
H 21.0162 10 -0.427883
O 20.029 10 3.05379
H 19.5236 10 3.96545
H 21.0162 10 3.42788
O 30.029 10 -0.0537898
H 29.5236 10 -0.965447
H 31.0162 10 -0.427883
O 30.029 10 3.05379
H 29.5236 10 3.96545
H 31.0162 10 3.42788
O 40.029 10 -0.0537899
H 39.5236 10 -0.965447
H 41.0162 10 -0.427883
O 40.029 10 3.05379
H 39.5236 10 3.96545
H 41.0162 10 3.42788
O 0.0289939 20 -0.0537899
H -0.476396 20 -0.965446
H 1.01621 20 -0.427883
O 0.0289939 20 3.05379
H -0.476396 20 3.96545
H 1.01621 20 3.42788
O 10.029 20 -0.0537899
H 9.5236 20 -0.965446
H 11.0162 20 -0.427884
O 10.029 20 3.05379
H 9.5236 20 3.96545
H 11.0162 20 3.42788
O 20.029 20 -0.0537898
H 19.5236 20 -0.965446
H 21.0162 20 -0.427883
O 20.029 20 3.05379
H 19.5236 20 3.96545
H 21.0162 20 3.42788
O 30.029 20 -0.0537898
H 29.5236 20 -0.965447
H 31.0162 20 -0.427883
O 30.029 20 3.05379
H 29.5236 20 3.96545
H 31.0162 20 3.42788
O 40.029 20 -0.0537899
H 39.5236 20 -0.965447
H 41.0162 20 -0.427883
O 40.029 20 3.05379
H 39.5236 20 3.96545
H 41.0162 20 3.42788
O 0.0289939 30 -0.0537899
H -0.476396 30 -0.965446
H 1.01621 30 -0.427883
O 0.0289939 30 3.05379
H -0.476396 30 3.96545
H 1.01621 30 3.42788
O 10.029 30 -0.0537899
H 9.5236 30 -0.965446
H 11.0162 30 -0.427884
O 10.029 30 3.05379
H 9.5236 30 3.96545
H 11.0162 30 3.42788
O 20.029 30 -0.0537898
H 19.5236 30 -0.965446
H 21.0162 30 -0.427883
O 20.029 30 3.05379
H 19.5236 30 3.96545
H 21.0162 30 3.42788
O 30.029 30 -0.0537898
H 29.5236 30 -0.965447
H 31.0162 30 -0.427883
O 30.029 30 3.05379
H 29.5236 30 3.96545
H 31.0162 30 3.42788
O 40.029 30 -0.0537899
H 39.5236 30 -0.965447
H 41.0162 30 -0.427883
O 40.029 30 3.05379
H 39.5236 30 3.96545
H 41.0162 30 3.42788
O 0.0289939 40 -0.0537899
H -0.476396 40 -0.965446
H 1.01621 40 -0.427883
O 0.0289939 40 3.05379
H -0.476396 40 3.96545
H 1.01621 40 3.42788
O 10.029 40 -0.0537899
H 9.5236 40 -0.965446
H 11.0162 40 -0.427884
O 10.029 40 3.05379
H 9.5236 40 3.96545
H 11.0162 40 3.42788
O 20.029 40 -0.0537898
H 19.5236 40 -0.965446
H 21.0162 40 -0.427883
O 20.029 40 3.05379
H 19.5236 40 3.96545
H 21.0162 40 3.42788
O 30.029 40 -0.0537898
H 29.5236 40 -0.965447
H 31.0162 40 -0.427883
O 30.029 40 3.05379
H 29.5236 40 3.96545
H 31.0162 40 3.42788
O 40.029 40 -0.0537899
H 39.5236 40 -0.965447
H 41.0162 40 -0.427883
O 40.029 40 3.05379
H 39.5236 40 3.96545
H 41.0162 40 3.42788
O 0.0289939 1.46267e-18 9.94621
H -0.476396 -1.42236e-17 9.03455
H 1.0162 -1.29736e-17 9.57212
O 0.0289939 1.45472e-18 13.0538
H -0.476395 -1.7276e-17 13.9654
H 1.01621 -1.13301e-17 13.4279
O 10.029 -1.20099e-18 9.94621
H 9.5236 1.07928e-17 9.03455
H 11.0162 8.57235e-18 9.57212
O 10.029 -1.39039e-18 13.0538
H 9.5236 6.14749e-18 13.9654
H 11.0162 7.4934e-18 13.4279
O 20.029 -3.71168e-18 9.94621
H 19.5236 3.00161e-17 9.03455
H 21.0162 3.0873e-17 9.57212
O 20.029 -2.93537e-18 13.0538
H 19.5236 1.90252e-17 13.9654
H 21.0162 2.46659e-17 13.4279
O 30.029 2.87204e-18 9.94621
H 29.5236 -2.13621e-17 9.03455
H 31.0162 -2.91961e-17 9.57212
O 30.029 2.88781e-18 13.0538
H 29.5236 -2.65717e-17 13.9654
H 31.0162 -2.77582e-17 13.4279
O 40.029 1.91495e-18 9.94621
H 39.5236 -1.4334e-17 9.03455
H 41.0162 -1.08881e-17 9.57212
O 40.029 3.05781e-18 13.0538
H 39.5236 -3.34184e-17 13.9654
H 41.0162 -1.90655e-17 13.4279
O 0.0289939 10 9.94621
H -0.476396 10 9.03455
H 1.0162 10 9.57212
O 0.0289939 10 13.0538
H -0.476395 10 13.9654
H 1.01621 10 13.4279
O 10.029 10 9.94621
H 9.5236 10 9.03455
H 11.0162 10 9.57212
O 10.029 10 13.0538
H 9.5236 10 13.9654
H 11.0162 10 13.4279
O 20.029 10 9.94621
H 19.5236 10 9.03455
H 21.0162 10 9.57212
O 20.029 10 13.0538
H 19.5236 10 13.9654
H 21.0162 10 13.4279
O 30.029 10 9.94621
H 29.5236 10 9.03455
H 31.0162 10 9.57212
O 30.029 10 13.0538
H 29.5236 10 13.9654
H 31.0162 10 13.4279
O 40.029 10 9.94621
H 39.5236 10 9.03455
H 41.0162 10 9.57212
O 40.029 10 13.0538
H 39.5236 10 13.9654
H 41.0162 10 13.4279
O 0.0289939 20 9.94621
H -0.476396 20 9.03455
H 1.0162 20 9.57212
O 0.0289939 20 13.0538
H -0.476395 20 13.9654
H 1.01621 20 13.4279
O 10.029 20 9.94621
H 9.5236 20 9.03455
H 11.0162 20 9.57212
O 10.029 20 13.0538
H 9.5236 20 13.9654
H 11.0162 20 13.4279
O 20.029 20 9.94621
H 19.5236 20 9.03455
H 21.0162 20 9.57212
O 20.029 20 13.0538
H 19.5236 20 13.9654
H 21.0162 20 13.4279
O 30.029 20 9.94621
H 29.5236 20 9.03455
H 31.0162 20 9.57212
O 30.029 20 13.0538
H 29.5236 20 13.9654
H 31.0162 20 13.4279
O 40.029 20 9.94621
H 39.5236 20 9.03455
H 41.0162 20 9.57212
O 40.029 20 13.0538
H 39.5236 20 13.9654
H 41.0162 20 13.4279
O 0.0289939 30 9.94621
H -0.476396 30 9.03455
H 1.0162 30 9.57212
O 0.0289939 30 13.0538
H -0.476395 30 13.9654
H 1.01621 30 13.4279
O 10.029 30 9.94621
H 9.5236 30 9.03455
H 11.0162 30 9.57212
O 10.029 30 13.0538
H 9.5236 30 13.9654
H 11.0162 30 13.4279
O 20.029 30 9.94621
H 19.5236 30 9.03455
H 21.0162 30 9.57212
O 20.029 30 13.0538
H 19.5236 30 13.9654
H 21.0162 30 13.4279
O 30.029 30 9.94621
H 29.5236 30 9.03455
H 31.0162 30 9.57212
O 30.029 30 13.0538
H 29.5236 30 13.9654
H 31.0162 30 13.4279
O 40.029 30 9.94621
H 39.5236 30 9.03455
H 41.0162 30 9.57212
O 40.029 30 13.0538
H 39.5236 30 13.9654
H 41.0162 30 13.4279
O 0.0289939 40 9.94621
H -0.476396 40 9.03455
H 1.0162 40 9.57212
O 0.0289939 40 13.0538
H -0.476395 40 13.9654
H 1.01621 40 13.4279
O 10.029 40 9.94621
H 9.5236 40 9.03455
H 11.0162 40 9.57212
O 10.029 40 13.0538
H 9.5236 40 13.9654
H 11.0162 40 13.4279
O 20.029 40 9.94621
H 19.5236 40 9.03455
H 21.0162 40 9.57212
O 20.029 40 13.0538
H 19.5236 40 13.9654
H 21.0162 40 13.4279
O 30.029 40 9.94621
H 29.5236 40 9.03455
H 31.0162 40 9.57212
O 30.029 40 13.0538
H 29.5236 40 13.9654
H 31.0162 40 13.4279
O 40.029 40 9.94621
H 39.5236 40 9.03455
H 41.0162 40 9.57212
O 40.029 40 13.0538
H 39.5236 40 13.9654
H 41.0162 40 13.4279
O 0.0289938 2.89764e-18 19.9462
H -0.476396 -2.83471e-17 19.0346
H 1.01621 -2.44919e-17 19.5721
O 0.0289939 1.7698e-18 23.0538
H -0.476396 -1.32791e-17 23.9654
H 1.0162 -1.11832e-17 23.4279
O 10.029 -1.96047e-18 19.9462
H 9.5236 9.44418e-18 19.0346
H 11.0162 8.95365e-18 19.5721
O 10.029 -2.94544e-18 23.0538
H 9.5236 2.20392e-17 23.9654
H 11.0162 2.17757e-17 23.4279
O 20.029 -3.12966e-18 19.9462
H 19.5236 1.97421e-17 19.0346
H 21.0162 1.80187e-17 19.5721
O 20.029 -4.32934e-18 23.0538
H 19.5236 3.35649e-17 23.9654
H 21.0162 3.4394e-17 23.4279
O 30.029 3.58133e-18 19.9462
H 29.5236 -3.30884e-17 19.0346
H 31.0162 -3.34585e-17 19.5721
O 30.029 2.91157e-18 23.0538
H 29.5236 -2.33369e-17 23.9654
H 31.0162 -2.35222e-17 23.4279
O 40.029 4.2205e-18 19.9462
H 39.5236 -4.35406e-17 19.0346
H 41.0162 -3.29543e-17 19.5721
O 40.029 2.0024e-18 23.0538
H 39.5236 -1.66637e-17 23.9654
H 41.0162 -1.04193e-17 23.4279
O 0.0289938 10 19.9462
H -0.476396 10 19.0346
H 1.01621 10 19.5721
O 0.0289939 10 23.0538
H -0.476396 10 23.9654
H 1.0162 10 23.4279
O 10.029 10 19.9462
H 9.5236 10 19.0346
H 11.0162 10 19.5721
O 10.029 10 23.0538
H 9.5236 10 23.9654
H 11.0162 10 23.4279
O 20.029 10 19.9462
H 19.5236 10 19.0346
H 21.0162 10 19.5721
O 20.029 10 23.0538
H 19.5236 10 23.9654
H 21.0162 10 23.4279
O 30.029 10 19.9462
H 29.5236 10 19.0346
H 31.0162 10 19.5721
O 30.029 10 23.0538
H 29.5236 10 23.9654
H 31.0162 10 23.4279
O 40.029 10 19.9462
H 39.5236 10 19.0346
H 41.0162 10 19.5721
O 40.029 10 23.0538
H 39.5236 10 23.9654
H 41.0162 10 23.4279
O 0.0289938 20 19.9462
H -0.476396 20 19.0346
H 1.01621 20 19.5721
O 0.0289939 20 23.0538
H -0.476396 20 23.9654
H 1.0162 20 23.4279
O 10.029 20 19.9462
H 9.5236 20 19.0346
H 11.0162 20 19.5721
O 10.029 20 23.0538
H 9.5236 20 23.9654
H 11.0162 20 23.4279
O 20.029 20 19.9462
H 19.5236 20 19.0346
H 21.0162 20 19.5721
O 20.029 20 23.0538
H 19.5236 20 23.9654
H 21.0162 20 23.4279
O 30.029 20 19.9462
H 29.5236 20 19.0346
H 31.0162 20 19.5721
O 30.029 20 23.0538
H 29.5236 20 23.9654
H 31.0162 20 23.4279
O 40.029 20 19.9462
H 39.5236 20 19.0346
H 41.0162 20 19.5721
O 40.029 20 23.0538
H 39.5236 20 23.9654
H 41.0162 20 23.4279
O 0.0289938 30 19.9462
H -0.476396 30 19.0346
H 1.01621 30 19.5721
O 0.0289939 30 23.0538
H -0.476396 30 23.9654
H 1.0162 30 23.4279
O 10.029 30 19.9462
H 9.5236 30 19.0346
H 11.0162 30 19.5721
O 10.029 30 23.0538
H 9.5236 30 23.9654
H 11.0162 30 23.4279
O 20.029 30 19.9462
H 19.5236 30 19.0346
H 21.0162 30 19.5721
O 20.029 30 23.0538
H 19.5236 30 23.9654
H 21.0162 30 23.4279
O 30.029 30 19.9462
H 29.5236 30 19.0346
H 31.0162 30 19.5721
O 30.029 30 23.0538
H 29.5236 30 23.9654
H 31.0162 30 23.4279
O 40.029 30 19.9462
H 39.5236 30 19.0346
H 41.0162 30 19.5721
O 40.029 30 23.0538
H 39.5236 30 23.9654
H 41.0162 30 23.4279
O 0.0289938 40 19.9462
H -0.476396 40 19.0346
H 1.01621 40 19.5721
O 0.0289939 40 23.0538
H -0.476396 40 23.9654
H 1.0162 40 23.4279
O 10.029 40 19.9462
H 9.5236 40 19.0346
H 11.0162 40 19.5721
O 10.029 40 23.0538
H 9.5236 40 23.9654
H 11.0162 40 23.4279
O 20.029 40 19.9462
H 19.5236 40 19.0346
H 21.0162 40 19.5721
O 20.029 40 23.0538
H 19.5236 40 23.9654
H 21.0162 40 23.4279
O 30.029 40 19.9462
H 29.5236 40 19.0346
H 31.0162 40 19.5721
O 30.029 40 23.0538
H 29.5236 40 23.9654
H 31.0162 40 23.4279
O 40.029 40 19.9462
H 39.5236 40 19.0346
H 41.0162 40 19.5721
O 40.029 40 23.0538
H 39.5236 40 23.9654
H 41.0162 40 23.4279
O 0.0289939 2.9629e-18 29.9462
H -0.476396 -2.3122e-17 29.0346
H 1.01621 -2.61114e-17 29.5721
O 0.0289938 2.01421e-18 33.0538
H -0.476396 -1.30078e-17 33.9654
H 1.01621 -1.45929e-17 33.4279
O 10.029 -1.10389e-18 29.9462
H 9.5236 8.025e-18 29.0346
H 11.0162 6.67764e-18 29.5721
O 10.029 -2.94545e-18 33.0538
H 9.5236 2.78935e-17 33.9654
H 11.0162 2.10762e-17 33.4279
O 20.029 -3.55349e-18 29.9462
H 19.5236 2.70118e-17 29.0346
H 21.0162 2.78132e-17 29.5721
O 20.029 -5.08516e-18 33.0538
H 19.5236 4.14012e-17 33.9654
H 21.0162 4.33171e-17 33.4279
O 30.029 3.16204e-18 29.9462
H 29.5236 -2.36474e-17 29.0346
H 31.0162 -3.50456e-17 29.5721
O 30.029 2.84494e-18 33.0538
H 29.5236 -2.50742e-17 33.9654
H 31.0162 -3.21622e-17 33.4279
O 40.029 2.22056e-18 29.9462
H 39.5236 -2.00709e-17 29.0346
H 41.0162 -1.47709e-17 29.5721
O 40.029 2.40034e-18 33.0538
H 39.5236 -2.33168e-17 33.9654
H 41.0162 -1.26888e-17 33.4279
O 0.0289939 10 29.9462
H -0.476396 10 29.0346
H 1.01621 10 29.5721
O 0.0289938 10 33.0538
H -0.476396 10 33.9654
H 1.01621 10 33.4279
O 10.029 10 29.9462
H 9.5236 10 29.0346
H 11.0162 10 29.5721
O 10.029 10 33.0538
H 9.5236 10 33.9654
H 11.0162 10 33.4279
O 20.029 10 29.9462
H 19.5236 10 29.0346
H 21.0162 10 29.5721
O 20.029 10 33.0538
H 19.5236 10 33.9654
H 21.0162 10 33.4279
O 30.029 10 29.9462
H 29.5236 10 29.0346
H 31.0162 10 29.5721
O 30.029 10 33.0538
H 29.5236 10 33.9654
H 31.0162 10 33.4279
O 40.029 10 29.9462
H 39.5236 10 29.0346
H 41.0162 10 29.5721
O 40.029 10 33.0538
H 39.5236 10 33.9654
H 41.0162 10 33.4279
O 0.0289939 20 29.9462
H -0.476396 20 29.0346
H 1.01621 20 29.5721
O 0.0289938 20 33.0538
H -0.476396 20 33.9654
H 1.01621 20 33.4279
O 10.029 20 29.9462
H 9.5236 20 29.0346
H 11.0162 20 29.5721
O 10.029 20 33.0538
H 9.5236 20 33.9654
H 11.0162 20 33.4279
O 20.029 20 29.9462
H 19.5236 20 29.0346
H 21.0162 20 29.5721
O 20.029 20 33.0538
H 19.5236 20 33.9654
H 21.0162 20 33.4279
O 30.029 20 29.9462
H 29.5236 20 29.0346
H 31.0162 20 29.5721
O 30.029 20 33.0538
H 29.5236 20 33.9654
H 31.0162 20 33.4279
O 40.029 20 29.9462
H 39.5236 20 29.0346
H 41.0162 20 29.5721
O 40.029 20 33.0538
H 39.5236 20 33.9654
H 41.0162 20 33.4279
O 0.0289939 30 29.9462
H -0.476396 30 29.0346
H 1.01621 30 29.5721
O 0.0289938 30 33.0538
H -0.476396 30 33.9654
H 1.01621 30 33.4279
O 10.029 30 29.9462
H 9.5236 30 29.0346
H 11.0162 30 29.5721
O 10.029 30 33.0538
H 9.5236 30 33.9654
H 11.0162 30 33.4279
O 20.029 30 29.9462
H 19.5236 30 29.0346
H 21.0162 30 29.5721
O 20.029 30 33.0538
H 19.5236 30 33.9654
H 21.0162 30 33.4279
O 30.029 30 29.9462
H 29.5236 30 29.0346
H 31.0162 30 29.5721
O 30.029 30 33.0538
H 29.5236 30 33.9654
H 31.0162 30 33.4279
O 40.029 30 29.9462
H 39.5236 30 29.0346
H 41.0162 30 29.5721
O 40.029 30 33.0538
H 39.5236 30 33.9654
H 41.0162 30 33.4279
O 0.0289939 40 29.9462
H -0.476396 40 29.0346
H 1.01621 40 29.5721
O 0.0289938 40 33.0538
H -0.476396 40 33.9654
H 1.01621 40 33.4279
O 10.029 40 29.9462
H 9.5236 40 29.0346
H 11.0162 40 29.5721
O 10.029 40 33.0538
H 9.5236 40 33.9654
H 11.0162 40 33.4279
O 20.029 40 29.9462
H 19.5236 40 29.0346
H 21.0162 40 29.5721
O 20.029 40 33.0538
H 19.5236 40 33.9654
H 21.0162 40 33.4279
O 30.029 40 29.9462
H 29.5236 40 29.0346
H 31.0162 40 29.5721
O 30.029 40 33.0538
H 29.5236 40 33.9654
H 31.0162 40 33.4279
O 40.029 40 29.9462
H 39.5236 40 29.0346
H 41.0162 40 29.5721
O 40.029 40 33.0538
H 39.5236 40 33.9654
H 41.0162 40 33.4279
600
Atoms. Timestep: 20
O 0.0753064 1.22509e-17 -0.200658
H -0.857911 -9.56273e-17 -0.437835
H 0.662645 -9.57063e-17 -0.976346
O 0.0753065 1.25815e-17 3.20066
H -0.857911 -9.74741e-17 3.43784
H 0.662645 -1.04443e-16 3.97635
O 10.0753 1.13542e-18 -0.200658
H 9.14209 -2.96029e-19 -0.437836
H 10.6626 -1.16676e-17 -0.976346
O 10.0753 2.0611e-18 3.20066
H 9.14209 -1.28825e-17 3.43784
H 10.6626 -1.41364e-17 3.97635
O 20.0753 -3.03045e-18 -0.200658
H 19.1421 2.65329e-17 -0.437836
H 20.6626 2.96197e-17 -0.976345
O 20.0753 -6.08906e-18 3.20066
H 19.1421 5.41378e-17 3.43784
H 20.6626 5.054e-17 3.97635
O 30.0753 7.13707e-18 -0.200658
H 29.1421 -6.11404e-17 -0.437836
H 30.6626 -6.6086e-17 -0.976346
O 30.0753 3.36044e-18 3.20066
H 29.1421 -2.19688e-17 3.43784
H 30.6626 -2.81388e-17 3.97635
O 40.0753 3.52683e-18 -0.200658
H 39.1421 -4.40293e-17 -0.437837
H 40.6626 -2.78168e-17 -0.976346
O 40.0753 -2.90828e-18 3.20066
H 39.1421 1.07538e-17 3.43784
H 40.6626 2.34172e-17 3.97635
O 0.0753064 10 -0.200658
H -0.857911 10 -0.437835
H 0.662645 10 -0.976346
O 0.0753065 10 3.20066
H -0.857911 10 3.43784
H 0.662645 10 3.97635
O 10.0753 10 -0.200658
H 9.14209 10 -0.437836
H 10.6626 10 -0.976346
O 10.0753 10 3.20066
H 9.14209 10 3.43784
H 10.6626 10 3.97635
O 20.0753 10 -0.200658
H 19.1421 10 -0.437836
H 20.6626 10 -0.976345
O 20.0753 10 3.20066
H 19.1421 10 3.43784
H 20.6626 10 3.97635
O 30.0753 10 -0.200658
H 29.1421 10 -0.437836
H 30.6626 10 -0.976346
O 30.0753 10 3.20066
H 29.1421 10 3.43784
H 30.6626 10 3.97635
O 40.0753 10 -0.200658
H 39.1421 10 -0.437837
H 40.6626 10 -0.976346
O 40.0753 10 3.20066
H 39.1421 10 3.43784
H 40.6626 10 3.97635
O 0.0753064 20 -0.200658
H -0.857911 20 -0.437835
H 0.662645 20 -0.976346
O 0.0753065 20 3.20066
H -0.857911 20 3.43784
H 0.662645 20 3.97635
O 10.0753 20 -0.200658
H 9.14209 20 -0.437836
H 10.6626 20 -0.976346
O 10.0753 20 3.20066
H 9.14209 20 3.43784
H 10.6626 20 3.97635
O 20.0753 20 -0.200658
H 19.1421 20 -0.437836
H 20.6626 20 -0.976345
O 20.0753 20 3.20066
H 19.1421 20 3.43784
H 20.6626 20 3.97635
O 30.0753 20 -0.200658
H 29.1421 20 -0.437836
H 30.6626 20 -0.976346
O 30.0753 20 3.20066
H 29.1421 20 3.43784
H 30.6626 20 3.97635
O 40.0753 20 -0.200658
H 39.1421 20 -0.437837
H 40.6626 20 -0.976346
O 40.0753 20 3.20066
H 39.1421 20 3.43784
H 40.6626 20 3.97635
O 0.0753064 30 -0.200658
H -0.857911 30 -0.437835
H 0.662645 30 -0.976346
O 0.0753065 30 3.20066
H -0.857911 30 3.43784
H 0.662645 30 3.97635
O 10.0753 30 -0.200658
H 9.14209 30 -0.437836
H 10.6626 30 -0.976346
O 10.0753 30 3.20066
H 9.14209 30 3.43784
H 10.6626 30 3.97635
O 20.0753 30 -0.200658
H 19.1421 30 -0.437836
H 20.6626 30 -0.976345
O 20.0753 30 3.20066
H 19.1421 30 3.43784
H 20.6626 30 3.97635
O 30.0753 30 -0.200658
H 29.1421 30 -0.437836
H 30.6626 30 -0.976346
O 30.0753 30 3.20066
H 29.1421 30 3.43784
H 30.6626 30 3.97635
O 40.0753 30 -0.200658
H 39.1421 30 -0.437837
H 40.6626 30 -0.976346
O 40.0753 30 3.20066
H 39.1421 30 3.43784
H 40.6626 30 3.97635
O 0.0753064 40 -0.200658
H -0.857911 40 -0.437835
H 0.662645 40 -0.976346
O 0.0753065 40 3.20066
H -0.857911 40 3.43784
H 0.662645 40 3.97635
O 10.0753 40 -0.200658
H 9.14209 40 -0.437836
H 10.6626 40 -0.976346
O 10.0753 40 3.20066
H 9.14209 40 3.43784
H 10.6626 40 3.97635
O 20.0753 40 -0.200658
H 19.1421 40 -0.437836
H 20.6626 40 -0.976345
O 20.0753 40 3.20066
H 19.1421 40 3.43784
H 20.6626 40 3.97635
O 30.0753 40 -0.200658
H 29.1421 40 -0.437836
H 30.6626 40 -0.976346
O 30.0753 40 3.20066
H 29.1421 40 3.43784
H 30.6626 40 3.97635
O 40.0753 40 -0.200658
H 39.1421 40 -0.437837
H 40.6626 40 -0.976346
O 40.0753 40 3.20066
H 39.1421 40 3.43784
H 40.6626 40 3.97635
O 0.0753066 8.64157e-18 9.79934
H -0.857912 -6.87215e-17 9.56216
H 0.662645 -7.38541e-17 9.02365
O 0.0753066 1.21316e-17 13.2007
H -0.857912 -1.06059e-16 13.4378
H 0.662645 -9.45652e-17 13.9763
O 10.0753 2.18536e-18 9.79934
H 9.14209 -1.35305e-17 9.56216
H 10.6626 -1.84582e-17 9.02365
O 10.0753 3.82586e-18 13.2007
H 9.14209 -4.56466e-17 13.4378
H 10.6626 -4.13994e-17 13.9763
O 20.0753 -5.7525e-18 9.79934
H 19.1421 4.7054e-17 9.56216
H 20.6626 4.90105e-17 9.02365
O 20.0753 -5.4143e-18 13.2007
H 19.1421 3.48183e-17 13.4378
H 20.6626 5.11981e-17 13.9763
O 30.0753 -2.18593e-18 9.79934
H 29.1421 1.11021e-17 9.56216
H 30.6626 1.36245e-18 9.02365
O 30.0753 -3.15539e-18 13.2007
H 29.1421 1.29925e-17 13.4378
H 30.6626 1.42376e-17 13.9763
O 40.0753 2.6603e-18 9.79934
H 39.1421 -6.19811e-18 9.56216
H 40.6626 -2.0019e-17 9.02365
O 40.0753 9.38398e-18 13.2007
H 39.1421 -8.78945e-17 13.4378
H 40.6626 -7.64207e-17 13.9763
O 0.0753066 10 9.79934
H -0.857912 10 9.56216
H 0.662645 10 9.02365
O 0.0753066 10 13.2007
H -0.857912 10 13.4378
H 0.662645 10 13.9763
O 10.0753 10 9.79934
H 9.14209 10 9.56216
H 10.6626 10 9.02365
O 10.0753 10 13.2007
H 9.14209 10 13.4378
H 10.6626 10 13.9763
O 20.0753 10 9.79934
H 19.1421 10 9.56216
H 20.6626 10 9.02365
O 20.0753 10 13.2007
H 19.1421 10 13.4378
H 20.6626 10 13.9763
O 30.0753 10 9.79934
H 29.1421 10 9.56216
H 30.6626 10 9.02365
O 30.0753 10 13.2007
H 29.1421 10 13.4378
H 30.6626 10 13.9763
O 40.0753 10 9.79934
H 39.1421 10 9.56216
H 40.6626 10 9.02365
O 40.0753 10 13.2007
H 39.1421 10 13.4378
H 40.6626 10 13.9763
O 0.0753066 20 9.79934
H -0.857912 20 9.56216
H 0.662645 20 9.02365
O 0.0753066 20 13.2007
H -0.857912 20 13.4378
H 0.662645 20 13.9763
O 10.0753 20 9.79934
H 9.14209 20 9.56216
H 10.6626 20 9.02365
O 10.0753 20 13.2007
H 9.14209 20 13.4378
H 10.6626 20 13.9763
O 20.0753 20 9.79934
H 19.1421 20 9.56216
H 20.6626 20 9.02365
O 20.0753 20 13.2007
H 19.1421 20 13.4378
H 20.6626 20 13.9763
O 30.0753 20 9.79934
H 29.1421 20 9.56216
H 30.6626 20 9.02365
O 30.0753 20 13.2007
H 29.1421 20 13.4378
H 30.6626 20 13.9763
O 40.0753 20 9.79934
H 39.1421 20 9.56216
H 40.6626 20 9.02365
O 40.0753 20 13.2007
H 39.1421 20 13.4378
H 40.6626 20 13.9763
O 0.0753066 30 9.79934
H -0.857912 30 9.56216
H 0.662645 30 9.02365
O 0.0753066 30 13.2007
H -0.857912 30 13.4378
H 0.662645 30 13.9763
O 10.0753 30 9.79934
H 9.14209 30 9.56216
H 10.6626 30 9.02365
O 10.0753 30 13.2007
H 9.14209 30 13.4378
H 10.6626 30 13.9763
O 20.0753 30 9.79934
H 19.1421 30 9.56216
H 20.6626 30 9.02365
O 20.0753 30 13.2007
H 19.1421 30 13.4378
H 20.6626 30 13.9763
O 30.0753 30 9.79934
H 29.1421 30 9.56216
H 30.6626 30 9.02365
O 30.0753 30 13.2007
H 29.1421 30 13.4378
H 30.6626 30 13.9763
O 40.0753 30 9.79934
H 39.1421 30 9.56216
H 40.6626 30 9.02365
O 40.0753 30 13.2007
H 39.1421 30 13.4378
H 40.6626 30 13.9763
O 0.0753066 40 9.79934
H -0.857912 40 9.56216
H 0.662645 40 9.02365
O 0.0753066 40 13.2007
H -0.857912 40 13.4378
H 0.662645 40 13.9763
O 10.0753 40 9.79934
H 9.14209 40 9.56216
H 10.6626 40 9.02365
O 10.0753 40 13.2007
H 9.14209 40 13.4378
H 10.6626 40 13.9763
O 20.0753 40 9.79934
H 19.1421 40 9.56216
H 20.6626 40 9.02365
O 20.0753 40 13.2007
H 19.1421 40 13.4378
H 20.6626 40 13.9763
O 30.0753 40 9.79934
H 29.1421 40 9.56216
H 30.6626 40 9.02365
O 30.0753 40 13.2007
H 29.1421 40 13.4378
H 30.6626 40 13.9763
O 40.0753 40 9.79934
H 39.1421 40 9.56216
H 40.6626 40 9.02365
O 40.0753 40 13.2007
H 39.1421 40 13.4378
H 40.6626 40 13.9763
O 0.0753066 1.08682e-17 19.7993
H -0.857911 -9.76981e-17 19.5622
H 0.662645 -9.46273e-17 19.0237
O 0.0753064 7.93514e-18 23.2007
H -0.857912 -5.74274e-17 23.4378
H 0.662645 -5.38743e-17 23.9763
O 10.0753 -5.42088e-18 19.7993
H 9.14209 1.99539e-17 19.5622
H 10.6626 2.49388e-17 19.0237
O 10.0753 -1.04726e-17 23.2007
H 9.14209 7.89534e-17 23.4378
H 10.6626 8.19643e-17 23.9763
O 20.0753 -1.36516e-17 19.7993
H 19.1421 8.80468e-17 19.5622
H 20.6626 9.4453e-17 19.0237
O 20.0753 -1.7337e-17 23.2007
H 19.1421 1.29347e-16 23.4378
H 20.6626 1.4109e-16 23.9763
O 30.0753 3.07701e-19 19.7993
H 29.1421 -1.40351e-17 19.5622
H 30.6626 -1.78049e-17 19.0237
O 30.0753 -2.03525e-18 23.2007
H 29.1421 1.66438e-17 23.4378
H 30.6626 9.38417e-18 23.9763
O 40.0753 9.44517e-18 19.7993
H 39.1421 -9.39743e-17 19.5622
H 40.6626 -8.1543e-17 19.0237
O 40.0753 3.53714e-18 23.2007
H 39.1421 -3.18537e-17 23.4378
H 40.6626 -2.54967e-17 23.9763
O 0.0753066 10 19.7993
H -0.857911 10 19.5622
H 0.662645 10 19.0237
O 0.0753064 10 23.2007
H -0.857912 10 23.4378
H 0.662645 10 23.9763
O 10.0753 10 19.7993
H 9.14209 10 19.5622
H 10.6626 10 19.0237
O 10.0753 10 23.2007
H 9.14209 10 23.4378
H 10.6626 10 23.9763
O 20.0753 10 19.7993
H 19.1421 10 19.5622
H 20.6626 10 19.0237
O 20.0753 10 23.2007
H 19.1421 10 23.4378
H 20.6626 10 23.9763
O 30.0753 10 19.7993
H 29.1421 10 19.5622
H 30.6626 10 19.0237
O 30.0753 10 23.2007
H 29.1421 10 23.4378
H 30.6626 10 23.9763
O 40.0753 10 19.7993
H 39.1421 10 19.5622
H 40.6626 10 19.0237
O 40.0753 10 23.2007
H 39.1421 10 23.4378
H 40.6626 10 23.9763
O 0.0753066 20 19.7993
H -0.857911 20 19.5622
H 0.662645 20 19.0237
O 0.0753064 20 23.2007
H -0.857912 20 23.4378
H 0.662645 20 23.9763
O 10.0753 20 19.7993
H 9.14209 20 19.5622
H 10.6626 20 19.0237
O 10.0753 20 23.2007
H 9.14209 20 23.4378
H 10.6626 20 23.9763
O 20.0753 20 19.7993
H 19.1421 20 19.5622
H 20.6626 20 19.0237
O 20.0753 20 23.2007
H 19.1421 20 23.4378
H 20.6626 20 23.9763
O 30.0753 20 19.7993
H 29.1421 20 19.5622
H 30.6626 20 19.0237
O 30.0753 20 23.2007
H 29.1421 20 23.4378
H 30.6626 20 23.9763
O 40.0753 20 19.7993
H 39.1421 20 19.5622
H 40.6626 20 19.0237
O 40.0753 20 23.2007
H 39.1421 20 23.4378
H 40.6626 20 23.9763
O 0.0753066 30 19.7993
H -0.857911 30 19.5622
H 0.662645 30 19.0237
O 0.0753064 30 23.2007
H -0.857912 30 23.4378
H 0.662645 30 23.9763
O 10.0753 30 19.7993
H 9.14209 30 19.5622
H 10.6626 30 19.0237
O 10.0753 30 23.2007
H 9.14209 30 23.4378
H 10.6626 30 23.9763
O 20.0753 30 19.7993
H 19.1421 30 19.5622
H 20.6626 30 19.0237
O 20.0753 30 23.2007
H 19.1421 30 23.4378
H 20.6626 30 23.9763
O 30.0753 30 19.7993
H 29.1421 30 19.5622
H 30.6626 30 19.0237
O 30.0753 30 23.2007
H 29.1421 30 23.4378
H 30.6626 30 23.9763
O 40.0753 30 19.7993