lammps testing 2 water molecules

6 atoms
4 bonds
2 angles

2 atom types
1 bond types
1 angle type

-5.0 5.0 xlo xhi
-5.0 5.0 ylo yhi
-5.0 5.0 zlo zhi

Masses

1 15.999
2 1.008

Atoms
#Atom_ID Group_ID Atom_type Charge X Y Z
1 1 1 -0.8068 0 0 0 
2 1 2 0.4034 0 0 -1
3 1 2 0.4034 1 0 0
4 2 1 -0.8068 0 0 3
5 2 2 0.4034 0 0 4
6 2 2 0.4034 1 0 3

Bonds
# bond_ID Bond_type Atom_A Atom_B
1 1 1 2
2 1 1 3
3 1 4 5
4 1 6 4

Angles
# angle_ID Angle_type Angle_A Angle_B
1 1 2 1 3
2 1 5 4 6
