ITEM: TIMESTEP
35300
ITEM: NUMBER OF ATOMS
750
ITEM: BOX BOUNDS pp pp pp
-2.3174439720801544e+01 6.3174439720800947e+01
-2.3174439720801544e+01 6.3174439720800947e+01
-2.3174439720801544e+01 6.3174439720800947e+01
ITEM: ATOMS id type xs ys zs
578 2 0.111547 0.0268544 0.0766339
577 1 0.12007 0.0280753 0.084326
579 2 0.11764 0.037511 0.0908032
369 2 0.147661 0.107659 0.0123738
367 1 0.139583 0.099992 0.00959464
368 2 0.133212 0.10397 0.000740256
180 2 0.187855 0.125155 0.112096
178 1 0.185042 0.125106 0.123327
179 2 0.179454 0.115359 0.126081
135 2 0.434678 0.0368634 0.0386299
134 2 0.449338 0.0260896 0.0440554
133 1 0.446084 0.0365783 0.0403344
719 2 0.90714 0.0109781 0.0780344
718 1 0.901922 0.00737686 0.0684662
424 1 0.485483 0.217473 0.0062698
635 2 0.688672 0.185359 0.128918
636 2 0.671714 0.191931 0.133978
634 1 0.677532 0.18634 0.125685
236 2 0.768404 0.167139 0.997874
235 1 0.774219 0.17577 0.00305315
470 2 0.962336 0.273756 0.089043
471 2 0.964605 0.274784 0.0703333
469 1 0.96477 0.26766 0.079454
688 1 0.357014 0.354454 0.0497465
689 2 0.347751 0.361059 0.0473811
690 2 0.353544 0.343636 0.0522088
487 1 0.727531 0.35162 0.998909
305 2 0.490302 0.481674 0.000335476
304 1 0.497071 0.479427 0.00945569
306 2 0.506152 0.486637 0.00943527
479 2 0.48057 0.458461 0.021189
480 2 0.472453 0.442299 0.0154613
478 1 0.470384 0.453082 0.0188816
529 1 0.46005 0.500666 0.129382
530 2 0.466418 0.51022 0.127934
531 2 0.450871 0.503553 0.135701
50 2 0.450465 0.575282 0.144104
198 2 0.546182 0.525218 0.135506
196 1 0.551413 0.535041 0.138542
464 2 0.467255 0.499978 0.995028
463 1 0.468031 0.503057 0.00628695
396 2 0.817162 0.419281 0.051732
395 2 0.829839 0.432922 0.0506952
580 1 0.796415 0.497855 0.0501435
581 2 0.791809 0.488013 0.0541763
582 2 0.792195 0.500414 0.0396112
394 1 0.818998 0.43012 0.0481558
693 2 0.397265 0.716227 0.0228168
691 1 0.397922 0.704783 0.0208984
49 1 0.455155 0.573987 0.133552
51 2 0.463597 0.581848 0.132316
443 2 0.5834 0.607854 0.131217
704 2 0.587967 0.656612 0.0767412
703 1 0.598287 0.660062 0.0727564
444 2 0.565743 0.606444 0.124608
442 1 0.572377 0.610365 0.133326
705 2 0.605148 0.650776 0.0715096
552 2 0.799308 0.594372 0.112836
550 1 0.793057 0.602693 0.118167
551 2 0.792928 0.611913 0.111101
493 1 0.931916 0.594073 0.107414
494 2 0.938306 0.584586 0.10571
495 2 0.924494 0.592637 0.116149
302 2 0.0333919 0.850838 0.0856541
301 1 0.0235909 0.846015 0.0816672
692 2 0.388134 0.70126 0.0157828
680 2 0.749335 0.729283 0.0897123
679 1 0.757988 0.735466 0.0850675
681 2 0.766299 0.728254 0.0814183
303 2 0.0154011 0.845415 0.0897048
157 1 0.177369 0.981483 0.103323
159 2 0.185305 0.989846 0.104755
158 2 0.166829 0.986234 0.104695
412 1 0.345437 0.951968 0.140885
414 2 0.339243 0.947317 0.149545
633 2 0.613801 0.89844 0.110466
631 1 0.624202 0.898006 0.105162
632 2 0.63214 0.897456 0.11371
14 2 0.840181 0.889232 0.102033
13 1 0.848105 0.88916 0.110435
15 2 0.843233 0.884581 0.119904
279 2 0.951985 0.977759 0.13823
278 2 0.947322 0.982492 0.120366
277 1 0.955402 0.983263 0.128667
720 2 0.896657 0.997207 0.0705304
89 2 0.0987182 0.0598411 0.204579
90 2 0.0870819 0.0615972 0.189835
88 1 0.0969723 0.0567628 0.193608
472 1 0.133718 0.0963738 0.251406
473 2 0.124082 0.0926642 0.25675
474 2 0.135003 0.1076 0.254096
46 1 0.497521 0.112956 0.181106
48 2 0.500785 0.12425 0.18031
47 2 0.503965 0.106723 0.173658
380 2 0.713143 0.0502109 0.162898
381 2 0.700161 0.0480385 0.176349
379 1 0.704763 0.0431413 0.167015
576 2 0.820663 0.121246 0.24632
574 1 0.820674 0.126851 0.256472
575 2 0.822986 0.13811 0.254659
540 2 0.0277927 0.161295 0.256988
539 2 0.0459905 0.156576 0.256636
538 1 0.0375308 0.16206 0.250807
363 2 0.127756 0.299072 0.285803
419 2 0.245528 0.430762 0.154338
262 1 0.335394 0.344275 0.281348
263 2 0.339859 0.352832 0.274895
264 2 0.324187 0.343206 0.278414
28 1 0.745729 0.316237 0.184356
29 2 0.748714 0.320447 0.173948
30 2 0.738902 0.324242 0.189449
742 1 0.751879 0.409981 0.275992
743 2 0.745413 0.408485 0.285674
744 2 0.752192 0.399986 0.270157
420 2 0.251045 0.430028 0.136504
418 1 0.253276 0.435139 0.146792
490 1 0.426662 0.509594 0.280319
197 2 0.543733 0.542282 0.143378
491 2 0.425923 0.520764 0.277527
95 2 0.956233 0.500382 0.229889
94 1 0.951214 0.494824 0.238767
96 2 0.94052 0.499018 0.240201
677 2 0.35183 0.586737 0.197715
676 1 0.359002 0.593455 0.20401
678 2 0.356756 0.604455 0.200828
732 2 0.419695 0.684655 0.266653
730 1 0.419977 0.693815 0.274004
731 2 0.414254 0.690598 0.283551
176 2 0.479744 0.638096 0.183321
175 1 0.484924 0.62847 0.179577
177 2 0.495751 0.628185 0.18376
615 2 0.710649 0.613171 0.17004
613 1 0.715103 0.613599 0.180796
614 2 0.724307 0.620615 0.180574
373 1 0.861816 0.70576 0.163526
374 2 0.860156 0.695248 0.168132
71 2 0.949256 0.724683 0.226465
725 2 0.122709 0.816755 0.167653
726 2 0.132592 0.831992 0.172554
724 1 0.132516 0.820328 0.17262
288 2 0.394654 0.828152 0.270692
286 1 0.383344 0.827878 0.27311
287 2 0.381258 0.835689 0.28145
87 2 0.521723 0.742729 0.183828
85 1 0.525348 0.745753 0.173321
86 2 0.520798 0.755957 0.170506
342 2 0.625057 0.800586 0.181084
341 2 0.609987 0.803154 0.17015
340 1 0.614929 0.806175 0.180177
458 2 0.618395 0.859327 0.272557
457 1 0.611733 0.856607 0.281785
63 2 0.872914 0.706315 0.253025
729 2 0.811238 0.763363 0.268327
727 1 0.817886 0.753815 0.26706
728 2 0.819272 0.748623 0.277222
375 2 0.85306 0.708643 0.156537
61 1 0.864245 0.714049 0.252969
62 2 0.865216 0.720881 0.262172
70 1 0.938633 0.722426 0.230568
72 2 0.932841 0.732487 0.230783
413 2 0.338495 0.952924 0.131586
506 2 0.403773 0.862157 0.233567
505 1 0.408042 0.869399 0.241569
507 2 0.400463 0.877943 0.243838
649 1 0.613393 0.918243 0.239315
651 2 0.611691 0.907146 0.236679
650 2 0.610534 0.92465 0.229931
437 2 0.659288 0.935175 0.249229
438 2 0.652816 0.95102 0.241506
436 1 0.66243 0.945718 0.245491
408 2 0.726121 0.00122646 0.227799
195 2 0.761538 0.940144 0.186199
407 2 0.743549 0.0022727 0.234301
406 1 0.73607 0.995294 0.228761
194 2 0.753126 0.928435 0.197858
193 1 0.754994 0.930493 0.186526
261 2 0.73679 0.900896 0.192229
259 1 0.736528 0.89421 0.182708
260 2 0.74576 0.897106 0.176255
587 2 0.926706 0.00444449 0.178582
588 2 0.934478 0.98757 0.175514
586 1 0.924649 0.993753 0.174609
669 2 0.178521 0.0921552 0.331832
668 2 0.161551 0.0888265 0.339368
667 1 0.170154 0.0842767 0.332816
6 2 0.195276 0.140134 0.430142
170 2 0.337967 0.0604204 0.376517
171 2 0.352662 0.070708 0.370368
169 1 0.349295 0.0604183 0.374783
700 1 0.471573 0.0416856 0.324401
702 2 0.460249 0.0411594 0.32652
701 2 0.47689 0.0332379 0.330385
219 2 0.445286 0.0919652 0.341267
218 2 0.456435 0.0822503 0.330006
217 1 0.445287 0.0853144 0.331579
722 2 0.609666 0.118827 0.37358
721 1 0.599128 0.116165 0.369694
723 2 0.599793 0.114911 0.358128
313 1 0.786241 0.0258838 0.382234
314 2 0.791972 0.0159763 0.384016
315 2 0.792511 0.0329037 0.375478
698 2 0.758031 0.0973853 0.39757
697 1 0.769063 0.0942269 0.396937
699 2 0.771228 0.0902374 0.386168
528 2 0.924044 0.113897 0.421763
527 2 0.936237 0.113676 0.407559
526 1 0.925662 0.117583 0.41079
35 2 0.57888 0.247852 0.326321
36 2 0.569616 0.236642 0.338588
34 1 0.573021 0.23787 0.327595
572 2 0.714961 0.252108 0.29657
573 2 0.719207 0.233736 0.294448
571 1 0.714384 0.243117 0.28917
361 1 0.12572 0.288033 0.28967
362 2 0.131341 0.281646 0.281475
127 1 0.0469353 0.413335 0.338901
128 2 0.0442285 0.402396 0.341452
129 2 0.0432514 0.420448 0.347274
345 2 0.139188 0.431785 0.331746
182 2 0.148764 0.323117 0.305493
183 2 0.136167 0.309073 0.305792
181 1 0.146672 0.312275 0.302016
125 2 0.363307 0.322626 0.318156
126 2 0.348264 0.313494 0.311674
124 1 0.35949 0.312361 0.314299
714 2 0.548201 0.345045 0.427561
712 1 0.547179 0.347739 0.416402
84 2 0.760763 0.367177 0.396608
83 2 0.7601 0.374588 0.414397
82 1 0.763761 0.365721 0.40763
242 2 0.745665 0.388358 0.433224
241 1 0.755024 0.388506 0.426198
39 2 0.728565 0.359553 0.417744
273 2 0.709826 0.429142 0.367885
38 2 0.734757 0.377482 0.415903
716 2 0.754635 0.331516 0.412717
37 1 0.726236 0.369844 0.413017
717 2 0.754075 0.313233 0.416949
715 1 0.749137 0.321396 0.410254
121 1 0.993893 0.369943 0.385212
123 2 0.00145833 0.362229 0.389234
122 2 0.983225 0.365542 0.385185
423 2 0.0714724 0.553409 0.306727
421 1 0.0673852 0.553119 0.295883
422 2 0.0619288 0.563133 0.293658
343 1 0.128382 0.427682 0.332428
344 2 0.127272 0.416831 0.328767
292 1 0.232689 0.494571 0.332851
293 2 0.223186 0.48935 0.337174
294 2 0.22881 0.504363 0.327527
492 2 0.41768 0.506387 0.2868
666 2 0.336867 0.494982 0.397024
665 2 0.347198 0.506968 0.386163
664 1 0.346921 0.500778 0.395927
411 2 0.47069 0.478877 0.351718
410 2 0.467406 0.485112 0.33423
409 1 0.464897 0.476711 0.341905
637 1 0.712892 0.56518 0.421107
271 1 0.721092 0.430241 0.371382
354 2 0.734185 0.435443 0.350571
272 2 0.724578 0.419251 0.373078
353 2 0.729381 0.442973 0.334366
352 1 0.734758 0.433866 0.339005
92 2 0.84364 0.419009 0.359519
91 1 0.848951 0.42892 0.362659
93 2 0.860527 0.42685 0.362275
638 2 0.719507 0.572568 0.427099
136 1 0.877695 0.43662 0.362266
137 2 0.867706 0.442321 0.364695
138 2 0.884183 0.444183 0.356143
519 2 0.254878 0.598757 0.359753
517 1 0.261544 0.589286 0.360873
518 2 0.271144 0.592551 0.366634
537 2 0.234382 0.695428 0.345689
536 2 0.252384 0.696299 0.351748
535 1 0.245332 0.692178 0.34355
749 2 0.485857 0.580273 0.391045
748 1 0.492459 0.589741 0.389616
750 2 0.485473 0.599016 0.388706
399 2 0.72573 0.647738 0.383132
685 1 0.619485 0.67172 0.423346
687 2 0.615924 0.668697 0.412688
397 1 0.718606 0.652877 0.390812
398 2 0.711173 0.659616 0.384867
706 1 0.0816357 0.848894 0.383297
708 2 0.0717218 0.854308 0.380297
707 2 0.0795925 0.84211 0.392443
31 1 0.479659 0.807331 0.324051
32 2 0.480477 0.7982 0.316853
33 2 0.46903 0.807092 0.328857
324 2 0.631443 0.757892 0.348052
323 2 0.643586 0.77236 0.349663
322 1 0.640807 0.763021 0.343357
459 2 0.607636 0.866296 0.286524
81 2 0.786612 0.742743 0.391636
80 2 0.77774 0.759121 0.394672
79 1 0.786258 0.75217 0.398425
223 1 0.418411 0.884403 0.379537
225 2 0.418617 0.884916 0.367814
224 2 0.407378 0.886797 0.382633
452 2 0.654502 0.970666 0.439972
739 1 0.759893 0.950714 0.412284
740 2 0.761348 0.94279 0.404034
741 2 0.748799 0.953019 0.414418
466 1 0.899014 0.961266 0.368269
468 2 0.906234 0.967392 0.375269
467 2 0.897243 0.951225 0.373707
427 1 0.0646614 0.073235 0.455706
428 2 0.0555719 0.0798093 0.45277
429 2 0.0745368 0.0792621 0.454994
152 2 0.0434926 0.0518792 0.524887
151 1 0.0330842 0.0536433 0.529827
153 2 0.0305588 0.0648975 0.529944
5 2 0.20557 0.125142 0.435156
4 1 0.20587 0.135516 0.429846
611 2 0.299962 0.0594551 0.440569
610 1 0.288544 0.0597734 0.438237
612 2 0.286631 0.066562 0.429047
290 2 0.392266 0.105733 0.527938
291 2 0.40615 0.118587 0.528726
289 1 0.396522 0.115231 0.523135
265 1 0.411658 0.123727 0.479811
267 2 0.413386 0.134261 0.484664
266 2 0.400325 0.121373 0.480647
391 1 0.307725 0.00776983 0.43926
393 2 0.309747 0.997072 0.435159
619 1 0.643958 0.0135975 0.563882
620 2 0.651644 0.0112223 0.572341
621 2 0.636959 0.00432103 0.564157
498 2 0.120659 0.174764 0.516069
496 1 0.124323 0.180784 0.525211
497 2 0.135414 0.177878 0.527328
149 2 0.294397 0.259124 0.547102
148 1 0.298564 0.260357 0.557946
150 2 0.295651 0.251239 0.564433
227 2 0.453658 0.185506 0.526228
226 1 0.449609 0.194687 0.531964
228 2 0.458133 0.199996 0.537673
42 2 0.618357 0.195673 0.443961
41 2 0.623467 0.180196 0.453043
40 1 0.617191 0.189837 0.453741
358 1 0.810927 0.265198 0.518177
359 2 0.813235 0.269559 0.507709
360 2 0.820986 0.263661 0.52382
147 2 0.980723 0.287277 0.507736
146 2 0.967597 0.294233 0.519458
308 2 0.109435 0.314237 0.518134
307 1 0.1166 0.316889 0.526911
309 2 0.116279 0.328348 0.529055
55 1 0.276867 0.390239 0.538757
57 2 0.267245 0.386859 0.533855
455 2 0.261682 0.422956 0.553047
456 2 0.278352 0.429345 0.546804
56 2 0.279196 0.386483 0.54928
654 2 0.439324 0.336965 0.548202
713 2 0.554303 0.356555 0.413933
652 1 0.436131 0.345036 0.540557
653 2 0.431054 0.353982 0.545761
243 2 0.760835 0.39814 0.429938
296 2 0.745716 0.369909 0.572711
295 1 0.746799 0.370305 0.561105
297 2 0.753943 0.361549 0.558096
19 1 0.990858 0.407452 0.543386
20 2 0.996586 0.415224 0.536911
21 2 0.998473 0.402836 0.551
145 1 0.973536 0.284532 0.516591
3 2 0.155565 0.470761 0.544404
248 2 0.00104154 0.539715 0.491323
1 1 0.147915 0.468275 0.552633
2 2 0.13702 0.4692 0.549044
16 1 0.177157 0.460308 0.572172
454 1 0.27198 0.427372 0.556255
18 2 0.173157 0.468471 0.565109
328 1 0.44175 0.497496 0.472111
329 2 0.4325 0.49493 0.465646
330 2 0.445962 0.507697 0.46861
639 2 0.701763 0.56817 0.422313
377 2 0.668944 0.474811 0.568373
376 1 0.668809 0.468069 0.558927
378 2 0.665937 0.474924 0.549983
110 2 0.699735 0.450248 0.535166
111 2 0.68676 0.463309 0.536689
109 1 0.695022 0.459136 0.529419
659 2 0.76539 0.555973 0.551576
658 1 0.769258 0.545959 0.547197
660 2 0.780402 0.547543 0.544229
348 2 0.827837 0.453826 0.559098
346 1 0.82318 0.443242 0.559876
347 2 0.814703 0.443394 0.56774
247 1 0.995622 0.545736 0.499677
249 2 0.986179 0.539856 0.50285
335 2 0.144353 0.6672 0.448779
334 1 0.149464 0.676262 0.454123
336 2 0.157794 0.671584 0.46076
253 1 0.276118 0.701722 0.57012
233 2 0.355245 0.614057 0.443435
232 1 0.366051 0.617777 0.441253
234 2 0.372529 0.616005 0.450728
210 2 0.345769 0.616194 0.529061
208 1 0.354765 0.618196 0.536008
209 2 0.363037 0.610454 0.53376
686 2 0.621512 0.683177 0.423251
645 2 0.617252 0.637739 0.460022
643 1 0.617789 0.629954 0.45143
644 2 0.614387 0.635314 0.44165
155 2 0.58221 0.627928 0.54667
156 2 0.593347 0.635399 0.560283
154 1 0.58516 0.637592 0.552402
695 2 0.748878 0.609444 0.546601
694 1 0.750176 0.599004 0.541677
382 1 0.849531 0.699557 0.488146
696 2 0.742401 0.597879 0.533127
384 2 0.851933 0.698128 0.499327
383 2 0.858776 0.703811 0.482795
275 2 0.0241268 0.770923 0.455434
274 1 0.0260594 0.759549 0.45657
276 2 0.0208676 0.753605 0.448103
186 2 0.676378 0.850528 0.573082
184 1 0.684973 0.846596 0.566462
75 2 0.778288 0.72343 0.489114
74 2 0.778656 0.737377 0.501542
73 1 0.774716 0.734384 0.490983
285 2 0.81842 0.740871 0.508842
283 1 0.828368 0.736745 0.513123
284 2 0.834249 0.744911 0.518823
310 1 0.970448 0.757366 0.541841
311 2 0.972887 0.753873 0.530973
312 2 0.959666 0.753829 0.544253
710 2 0.880003 0.829293 0.514982
709 1 0.876166 0.827085 0.504302
711 2 0.867623 0.834421 0.501609
661 1 0.0514301 0.915004 0.433918
662 2 0.0481845 0.910867 0.423468
663 2 0.0420528 0.913308 0.440743
339 2 0.0794011 0.899159 0.482519
337 1 0.068891 0.899592 0.477676
338 2 0.0692497 0.906008 0.468047
320 2 0.119161 0.989215 0.569191
319 1 0.129099 0.990352 0.563095
549 2 0.224308 0.917298 0.468956
547 1 0.229219 0.909913 0.476362
548 2 0.221974 0.908137 0.485235
115 1 0.176541 0.891162 0.562349
117 2 0.185235 0.885464 0.567452
392 2 0.298563 0.012319 0.433519
98 2 0.401139 0.870034 0.474393
99 2 0.401885 0.881347 0.45928
97 1 0.403884 0.880652 0.470652
451 1 0.650579 0.981597 0.439135
453 2 0.640059 0.98174 0.444149
185 2 0.682005 0.836638 0.561308
585 2 0.902049 0.951977 0.489329
583 1 0.89501 0.94285 0.488009
584 2 0.899394 0.933774 0.493687
245 2 0.965519 0.898674 0.56401
244 1 0.954839 0.902232 0.561033
246 2 0.956391 0.911641 0.554278
501 2 0.14561 0.028491 0.652869
500 2 0.132926 0.0406123 0.646377
499 1 0.138673 0.0373495 0.65583
603 2 0.376731 0.0380075 0.636168
601 1 0.365092 0.0379725 0.63572
602 2 0.360816 0.0385009 0.646386
735 2 0.363811 0.0964688 0.71591
317 2 0.530273 0.143141 0.694597
316 1 0.528421 0.132073 0.691452
318 2 0.53868 0.1272 0.688925
252 2 0.658488 0.026814 0.579847
250 1 0.661635 0.0204877 0.58916
251 2 0.664409 0.0284946 0.597222
675 2 0.74444 0.995947 0.592222
673 1 0.75084 0.00320151 0.59845
674 2 0.761939 0.00258801 0.59525
107 2 0.873098 0.0558227 0.669948
108 2 0.875884 0.0405334 0.659261
106 1 0.878647 0.0456508 0.669324
161 2 0.916031 0.135563 0.655284
435 2 0.129203 0.162775 0.664494
433 1 0.127403 0.151618 0.666543
434 2 0.13569 0.14536 0.661129
595 1 0.198476 0.170364 0.649765
596 2 0.20617 0.175002 0.642639
597 2 0.187748 0.173004 0.646195
522 2 0.704696 0.277219 0.646711
520 1 0.705013 0.26647 0.651363
521 2 0.702478 0.258832 0.642763
508 1 0.79985 0.282355 0.697747
510 2 0.79217 0.289985 0.693701
162 2 0.932311 0.141512 0.662967
160 1 0.92343 0.144407 0.656022
593 2 0.266632 0.342576 0.691162
592 1 0.265605 0.343966 0.679692
594 2 0.265798 0.333834 0.67427
684 2 0.390435 0.359699 0.588438
683 2 0.386183 0.365756 0.605849
682 1 0.390169 0.368926 0.595467
555 2 0.650156 0.306071 0.62356
604 1 0.702195 0.368783 0.639893
605 2 0.712923 0.364288 0.640081
606 2 0.698955 0.370731 0.650874
553 1 0.648336 0.296766 0.630402
554 2 0.648229 0.300045 0.641456
509 2 0.810546 0.284592 0.694128
17 2 0.182573 0.464712 0.581321
569 2 0.637782 0.497393 0.61328
568 1 0.643924 0.487348 0.613152
570 2 0.654673 0.489565 0.609527
417 2 0.769075 0.554135 0.582142
415 1 0.774821 0.563208 0.577808
599 2 0.928127 0.537724 0.599054
598 1 0.929903 0.548634 0.602389
600 2 0.938266 0.548452 0.610375
254 2 0.272087 0.694172 0.562374
255 2 0.267001 0.704406 0.577171
220 1 0.223118 0.642687 0.711053
221 2 0.229186 0.648708 0.703033
646 1 0.35557 0.663839 0.649356
647 2 0.344113 0.662552 0.651605
648 2 0.359488 0.653375 0.646278
416 2 0.771629 0.572528 0.583898
189 2 0.198966 0.87137 0.652494
8 2 0.541561 0.855641 0.701374
641 2 0.813383 0.714727 0.595398
642 2 0.815572 0.714903 0.576966
640 1 0.808158 0.718064 0.585481
139 1 0.85176 0.764032 0.666097
140 2 0.851236 0.753998 0.671934
141 2 0.859524 0.770883 0.671309
321 2 0.136838 0.98339 0.568234
201 2 0.0453751 0.936502 0.630751
199 1 0.0458799 0.947471 0.626912
200 2 0.0529704 0.953271 0.634231
116 2 0.180646 0.896187 0.552723
187 1 0.202068 0.867366 0.662895
188 2 0.209004 0.858151 0.661759
7 1 0.553184 0.855993 0.701533
9 2 0.556901 0.84534 0.704389
11 2 0.935753 0.885332 0.640662
10 1 0.946478 0.888716 0.643545
12 2 0.954064 0.881053 0.639433
211 1 0.927985 0.905469 0.684017
213 2 0.920656 0.910356 0.676353
212 2 0.934147 0.913985 0.689154
511 1 0.0990324 0.0395052 0.730627
512 2 0.092321 0.043823 0.722295
513 2 0.0973995 0.0281306 0.731714
326 2 0.214948 0.0360046 0.827407
327 2 0.204689 0.0454511 0.840311
325 1 0.208419 0.04531 0.829314
365 2 0.269538 0.103809 0.84901
366 2 0.27882 0.0876472 0.846392
364 1 0.268601 0.0930505 0.844825
733 1 0.3544 0.0896909 0.714579
734 2 0.352858 0.0841374 0.724668
118 1 0.563725 0.112597 0.787389
120 2 0.566507 0.115414 0.776489
119 2 0.554315 0.105738 0.787368
559 1 0.829182 0.0378711 0.718493
561 2 0.834722 0.0286979 0.71413
560 2 0.817679 0.036067 0.718192
78 2 0.0500996 0.263994 0.742711
76 1 0.0574532 0.26417 0.752038
77 2 0.0675621 0.259793 0.747778
608 2 0.376617 0.223268 0.770108
609 2 0.370634 0.220362 0.787911
607 1 0.367507 0.223573 0.777231
214 1 0.700023 0.197565 0.780392
216 2 0.709858 0.192966 0.784707
215 2 0.698679 0.194084 0.76942
356 2 0.646918 0.256297 0.793579
357 2 0.660627 0.254705 0.806595
355 1 0.655511 0.261839 0.799049
405 2 0.83519 0.22575 0.755373
403 1 0.83902 0.215803 0.759954
404 2 0.850615 0.215618 0.759334
616 1 0.0805452 0.356257 0.787256
617 2 0.0792753 0.349784 0.796791
618 2 0.0698867 0.357856 0.782726
483 2 0.12717 0.408503 0.833104
481 1 0.137025 0.414413 0.83257
164 2 0.00730496 0.362796 0.860283
192 2 0.173382 0.399726 0.779328
190 1 0.172884 0.410961 0.782492
191 2 0.170655 0.411258 0.793902
482 2 0.135579 0.424825 0.837411
524 2 0.56436 0.297252 0.763605
525 2 0.549193 0.30648 0.77008
523 1 0.5541 0.296032 0.768973
66 2 0.941581 0.367584 0.750177
64 1 0.94019 0.379133 0.749973
65 2 0.938756 0.382856 0.7609
351 2 0.0732886 0.534321 0.718426
350 2 0.0881922 0.53817 0.729264
349 1 0.0803644 0.542812 0.722094
60 2 0.252185 0.538593 0.807571
58 1 0.240903 0.540953 0.80923
59 2 0.23891 0.545303 0.81973
439 1 0.285831 0.576566 0.839065
440 2 0.293209 0.567916 0.837196
400 1 0.433842 0.461872 0.791141
402 2 0.42356 0.465544 0.787079
401 2 0.436149 0.467705 0.800976
172 1 0.476286 0.513379 0.806337
173 2 0.475083 0.515502 0.794963
174 2 0.472022 0.503082 0.809176
623 2 0.631182 0.447694 0.84761
622 1 0.632068 0.457255 0.841277
624 2 0.622174 0.459194 0.835672
630 2 0.889637 0.566558 0.779889
628 1 0.884207 0.573221 0.772029
222 2 0.21706 0.634436 0.705639
441 2 0.280404 0.578688 0.829123
448 1 0.281897 0.622832 0.819622
449 2 0.286474 0.631253 0.826227
104 2 0.235166 0.712059 0.835104
103 1 0.234249 0.700591 0.834183
105 2 0.226897 0.697447 0.842592
450 2 0.270503 0.622476 0.821303
476 2 0.542941 0.672543 0.859704
475 1 0.543896 0.674646 0.848138
566 2 0.696371 0.678063 0.79902
565 1 0.701578 0.678273 0.788581
567 2 0.69949 0.688634 0.783603
629 2 0.890561 0.582539 0.769476
270 2 0.936537 0.694763 0.81633
269 2 0.93381 0.680516 0.804471
268 1 0.938634 0.690958 0.805632
736 1 0.522961 0.815532 0.784696
737 2 0.511544 0.814094 0.785606
738 2 0.525036 0.825798 0.779674
281 2 0.501541 0.78267 0.787814
280 1 0.510533 0.775728 0.785839
282 2 0.516884 0.780009 0.777179
432 2 0.460994 0.736555 0.792327
430 1 0.45063 0.732227 0.79495
431 2 0.447318 0.736115 0.805357
45 2 0.681323 0.865213 0.818778
558 2 0.78234 0.765294 0.754307
556 1 0.787912 0.755062 0.754758
557 2 0.783357 0.74875 0.763411
258 2 0.476147 0.967238 0.819047
256 1 0.476618 0.972679 0.808853
257 2 0.482908 0.98233 0.809965
44 2 0.681386 0.85562 0.834975
43 1 0.687504 0.862968 0.82835
102 2 0.148425 0.144507 0.979758
101 2 0.16013 0.141224 0.965687
462 2 0.460338 0.0675252 0.955411
460 1 0.464554 0.0568045 0.956402
114 2 0.439469 0.0253162 0.918973
461 2 0.472396 0.0562574 0.964874
113 2 0.454866 0.0230371 0.908037
112 1 0.448747 0.018643 0.916732
24 2 0.4559 0.990896 0.884789
655 1 0.698551 0.0604876 0.987254
656 2 0.689319 0.062285 0.994066
657 2 0.70828 0.0604531 0.993565
386 2 0.994391 0.181206 0.954601
100 1 0.148829 0.14246 0.968326
515 2 0.229091 0.302939 0.8677
672 2 0.206517 0.262093 0.898242
670 1 0.211835 0.265903 0.907879
445 1 0.272518 0.206689 0.915871
671 2 0.222846 0.268726 0.905508
446 2 0.261497 0.204446 0.913299
447 2 0.279481 0.20226 0.907677
502 1 0.428216 0.214184 0.921438
503 2 0.420972 0.212658 0.930297
504 2 0.428899 0.225374 0.918645
425 2 0.478753 0.209745 0.000890465
426 2 0.496612 0.215007 0.00434219
370 1 0.642557 0.224535 0.89838
371 2 0.641645 0.2139 0.903168
372 2 0.653303 0.228447 0.900077
237 2 0.777596 0.183439 0.995093
385 1 0.995734 0.170966 0.949451
387 2 0.00697975 0.168468 0.94857
626 2 0.876389 0.170505 0.960234
625 1 0.874988 0.159312 0.957597
627 2 0.872846 0.158469 0.946228
165 2 0.0250607 0.355234 0.858647
163 1 0.0153676 0.358581 0.853297
514 1 0.224097 0.293818 0.872524
516 2 0.224208 0.294935 0.884087
388 1 0.404757 0.355357 0.893055
389 2 0.411905 0.346563 0.890905
390 2 0.397807 0.352745 0.90187
26 2 0.491792 0.415314 0.922236
25 1 0.497688 0.424791 0.919105
204 2 0.525599 0.416016 0.857829
203 2 0.521113 0.42747 0.872512
202 1 0.526723 0.417786 0.869198
489 2 0.719796 0.343554 0.995796
488 2 0.738211 0.347323 0.999016
167 2 0.993484 0.474625 0.927409
533 2 0.379499 0.50503 0.933982
532 1 0.376291 0.509468 0.923803
534 2 0.38564 0.513168 0.918146
300 2 0.355184 0.498133 0.923293
298 1 0.344633 0.498034 0.928193
299 2 0.3376 0.503966 0.920994
27 2 0.503232 0.429058 0.92837
465 2 0.459754 0.497181 0.0119305
206 2 0.662689 0.519274 0.982024
205 1 0.669077 0.524292 0.990224
746 2 0.689888 0.573164 0.89201
745 1 0.693195 0.565588 0.883882
207 2 0.671348 0.535355 0.987636
747 2 0.683816 0.562888 0.877419
166 1 0.000260423 0.473545 0.936881
168 2 0.994018 0.468496 0.945306
130 1 0.864871 0.540265 0.86596
132 2 0.876316 0.541709 0.867191
131 2 0.860506 0.535747 0.875728
53 2 0.0818729 0.703075 0.986682
54 2 0.0719638 0.697199 0.971619
52 1 0.0816851 0.702351 0.975106
230 2 0.358696 0.61891 0.977687
229 1 0.370144 0.618586 0.979197
231 2 0.374247 0.629342 0.978643
477 2 0.534861 0.669492 0.842752
143 2 0.536332 0.665236 0.89265
142 1 0.534262 0.668033 0.881643
144 2 0.523225 0.672116 0.881335
589 1 0.652252 0.619271 0.977224
591 2 0.641729 0.622513 0.980784
590 2 0.65838 0.615025 0.986027
544 1 0.590044 0.626973 0.928075
546 2 0.600621 0.63141 0.926646
545 2 0.584535 0.632112 0.936774
486 2 0.0145464 0.80268 0.968827
484 1 0.0260764 0.801825 0.968188
485 2 0.0295127 0.7919 0.973228
240 2 0.216389 0.767777 0.880566
238 1 0.227382 0.765051 0.878686
239 2 0.232311 0.760475 0.888087
23 2 0.472669 0.98785 0.892701
22 1 0.467331 0.990379 0.882635
331 1 0.643142 0.974248 0.908134
332 2 0.632542 0.973819 0.912903
333 2 0.642186 0.979762 0.897963
543 2 0.809447 0.881574 0.900043
541 1 0.816143 0.8743 0.906326
562 1 0.819569 0.881724 0.934458
564 2 0.81766 0.877136 0.944818
563 2 0.812447 0.877684 0.926205
542 2 0.826909 0.874676 0.902167
68 2 0.861315 0.885113 0.887782
69 2 0.869654 0.902442 0.889025
67 1 0.86512 0.894371 0.882152
ITEM: TIMESTEP
35400
ITEM: NUMBER OF ATOMS
750
ITEM: BOX BOUNDS pp pp pp
-2.2986856091773660e+01 6.2986856091773063e+01
-2.2986856091773660e+01 6.2986856091773063e+01
-2.2986856091773660e+01 6.2986856091773063e+01
ITEM: ATOMS id type xs ys zs
578 2 0.111248 0.0299877 0.0912107
577 1 0.119107 0.0325867 0.0829673
579 2 0.117762 0.0433881 0.0792626
369 2 0.142618 0.0946083 0.0118607
367 1 0.134324 0.100668 0.00638564
368 2 0.138426 0.111512 0.00445638
180 2 0.196747 0.127399 0.116168
178 1 0.185714 0.126634 0.11978
179 2 0.185279 0.118962 0.128545
135 2 0.450409 0.0291339 0.027818
134 2 0.452095 0.0449131 0.0383439
133 1 0.444496 0.0373933 0.0335617
719 2 0.910322 0.0119332 0.075831
718 1 0.89905 0.00963778 0.0737081
424 1 0.482088 0.218462 0.0119734
635 2 0.682801 0.175793 0.131564
636 2 0.66892 0.182401 0.11993
634 1 0.68049 0.181718 0.121682
236 2 0.762883 0.169357 0.0059112
235 1 0.773328 0.173308 0.00272283
470 2 0.973143 0.260508 0.070341
471 2 0.964116 0.261586 0.0872093
469 1 0.966822 0.267219 0.0773763
688 1 0.35342 0.354665 0.0437487
689 2 0.364761 0.354544 0.0408791
690 2 0.34957 0.365617 0.0428977
487 1 0.727152 0.350219 0.995206
305 2 0.505577 0.481838 0.00196248
304 1 0.497416 0.473464 0.00198921
306 2 0.499015 0.467681 0.991834
479 2 0.480097 0.46513 0.00959471
480 2 0.461956 0.458958 0.0111948
478 1 0.470408 0.465275 0.0161123
529 1 0.454595 0.504298 0.134483
530 2 0.4549 0.499574 0.123825
531 2 0.449353 0.514707 0.134812
50 2 0.45201 0.582755 0.125182
198 2 0.540722 0.529604 0.146485
196 1 0.545865 0.533105 0.136596
464 2 0.468707 0.495031 0.0190394
463 1 0.46154 0.496696 0.0099163
396 2 0.815155 0.419634 0.0579459
395 2 0.809904 0.437542 0.0541694
580 1 0.79611 0.497617 0.0501504
581 2 0.807697 0.496966 0.0510525
582 2 0.793455 0.49698 0.0388755
394 1 0.818987 0.430133 0.0542506
693 2 0.395062 0.708295 0.00913345
691 1 0.397137 0.704053 0.0199255
49 1 0.454613 0.57629 0.134477
51 2 0.464144 0.56998 0.13256
443 2 0.567074 0.619045 0.140751
704 2 0.613015 0.656815 0.0791076
703 1 0.601672 0.65467 0.077718
444 2 0.57163 0.600883 0.136163
442 1 0.569326 0.611594 0.132106
705 2 0.599586 0.643281 0.0782408
552 2 0.781277 0.603021 0.12249
550 1 0.792505 0.600377 0.121708
551 2 0.794607 0.589055 0.12271
493 1 0.928502 0.596201 0.10804
494 2 0.93937 0.59613 0.103845
495 2 0.922643 0.587386 0.103111
302 2 0.0264554 0.849862 0.0854382
301 1 0.0208586 0.839982 0.0870442
692 2 0.394333 0.692656 0.0202839
680 2 0.758689 0.748453 0.0832494
679 1 0.760598 0.736977 0.0832459
681 2 0.750505 0.731326 0.0843281
303 2 0.0276239 0.832387 0.0929096
157 1 0.175887 0.990708 0.103029
159 2 0.1866 0.988896 0.0988843
158 2 0.168214 0.984477 0.0969399
412 1 0.344205 0.952592 0.14411
414 2 0.343045 0.952481 0.13261
633 2 0.622317 0.904975 0.119851
631 1 0.622292 0.89678 0.111711
632 2 0.61249 0.890531 0.11214
14 2 0.85393 0.897591 0.111585
13 1 0.853598 0.885843 0.111422
15 2 0.848057 0.8823 0.121091
279 2 0.953068 0.97164 0.126518
278 2 0.951462 0.979971 0.143476
277 1 0.948595 0.980807 0.1322
720 2 0.892687 0.0184711 0.0780416
89 2 0.0954319 0.072691 0.1995
90 2 0.0974523 0.0596928 0.185808
88 1 0.099282 0.0619437 0.196983
472 1 0.127937 0.0960418 0.251968
473 2 0.126662 0.0843817 0.252521
474 2 0.138675 0.098532 0.248443
46 1 0.494662 0.11039 0.180089
48 2 0.487336 0.117592 0.185311
47 2 0.488969 0.100511 0.17733
380 2 0.710955 0.0441153 0.165619
381 2 0.708782 0.0255952 0.162785
379 1 0.703799 0.0351901 0.167417
576 2 0.815302 0.125094 0.26078
574 1 0.822899 0.131188 0.25438
575 2 0.830898 0.135331 0.262128
540 2 0.0439194 0.153282 0.248152
539 2 0.0460024 0.170969 0.25378
538 1 0.0378731 0.163043 0.251032
363 2 0.137318 0.277841 0.293203
419 2 0.240995 0.427502 0.139608
262 1 0.341279 0.332582 0.28313
263 2 0.336393 0.333242 0.272641
264 2 0.334045 0.33738 0.291042
28 1 0.742661 0.315953 0.184519
29 2 0.731466 0.313833 0.186764
30 2 0.749728 0.309466 0.190921
742 1 0.7518 0.407388 0.279241
743 2 0.761664 0.402457 0.275671
744 2 0.753998 0.418124 0.283202
420 2 0.258196 0.435058 0.138458
418 1 0.250182 0.431007 0.145876
490 1 0.430843 0.513916 0.284715
197 2 0.542187 0.543897 0.134306
491 2 0.434253 0.523969 0.279777
95 2 0.952961 0.486873 0.22651
94 1 0.951702 0.492851 0.236384
96 2 0.941848 0.499068 0.235862
677 2 0.360807 0.602012 0.196591
676 1 0.367422 0.599392 0.205764
678 2 0.374361 0.590422 0.20332
732 2 0.429397 0.685758 0.282956
730 1 0.421385 0.689567 0.275381
731 2 0.411464 0.691391 0.281318
176 2 0.487065 0.626422 0.188561
175 1 0.483722 0.627175 0.17727
177 2 0.472126 0.627241 0.17686
615 2 0.715094 0.605913 0.192212
613 1 0.712059 0.615065 0.18572
614 2 0.707788 0.611513 0.175581
373 1 0.85283 0.704395 0.161
374 2 0.85092 0.715645 0.163641
71 2 0.947573 0.724603 0.217015
725 2 0.132936 0.823202 0.161731
726 2 0.138683 0.829973 0.178582
724 1 0.136943 0.820422 0.172342
288 2 0.383136 0.824098 0.258788
286 1 0.382282 0.830121 0.268731
287 2 0.37312 0.837266 0.268009
87 2 0.535223 0.760275 0.179802
85 1 0.52639 0.752592 0.179989
86 2 0.520398 0.753363 0.16997
342 2 0.611711 0.815366 0.191318
341 2 0.624055 0.811686 0.177301