750
Atoms. Timestep: 35220
O -10.3295 16.9932 24.3416
H -9.80934 17.7916 24.6642
H -11.1466 16.9152 24.9306
O -5.53109 -11.6126 13.8197
H -6.37933 -11.0945 13.8963
H -5.00584 -11.3019 13.0264
O 24.4624 51.0092 37.2712
H 24.8558 50.0877 37.2388
H 24.5994 51.4935 36.4224
O 58.4469 54.0322 33.0252
H 57.6061 53.7229 32.5604
H 59.2336 53.736 32.4758
O 49.6537 53.8845 -13.8014
H 49.5161 54.3471 -14.6842
H 50.5018 53.3453 -13.8699
O -7.96438 16.6371 26.1087
H -8.53763 16.9168 26.8839
H -8.45934 15.9518 25.5575
O 62.8917 11.7551 23.6496
H 63.1708 10.8199 23.851
H 62.7031 12.2581 24.4921
O 17.0536 62.7229 53.5652
H 17.6375 62.7866 54.3732
H 16.4073 -23.1634 53.5911
O 19.8092 13.0087 56.503
H 19.5174 12.4488 55.7204
H 20.1133 13.8919 56.1326
O 41.5519 4.24767 -7.44405
H 40.8749 4.86045 -7.01675
H 41.0893 3.45116 -7.85058
O 18.325 46.5479 4.7685
H 17.3622 46.8082 4.81723
H 18.9006 47.2301 5.20595
O 26.4009 -3.10605 5.00538
H 25.7355 -3.57078 4.42005
H 26.4357 -2.13773 4.7294
O 39.9278 8.23279 12.8112
H 40.3926 7.66411 12.1294
H 40.2769 7.99427 13.7186
O 30.3288 -7.01748 15.9671
H 31.3064 -7.11525 15.7452
H 29.7699 -7.06785 15.1359
O 36.1401 51.4208 48.736
H 36.8515 51.2167 48.0693
H 35.3063 50.9198 48.5312
O 20.1792 -13.2918 -7.65136
H 19.5272 -13.467 -8.40988
H 19.7193 -13.3806 -6.7712
O 16.1243 26.2929 -11.6993
H 17.0812 25.9875 -11.7128
H 16.0444 27.1287 -11.1551
O -16.6386 37.7813 61.4921
H -15.8 38.2389 61.7993
H -17.3036 37.784 62.2416
O 0.665401 10.8471 23.1558
H 1.54542 10.6459 22.6721
H -0.0117692 10.4111 22.5235
O -2.47557 23.5705 46.6116
H -2.76825 22.6147 46.5684
H -2.12581 23.8673 45.7269
O 51.4596 38.857 -1.53681
H 51.7322 39.165 -2.4578
H 50.4967 39.1326 -1.37203
O 58.0169 9.38864 41.8309
H 57.4468 8.60369 42.0728
H 57.5213 10.2331 41.9962
O 51.4651 53.7907 53.3545
H 52.0066 53.9236 52.5188
H 52.1357 53.5762 54.0683
O 57.9896 39.2349 -3.04736
H 57.3218 38.5009 -3.23512
H 57.4712 40.0864 -2.92352
O 44.1107 39.9119 19.857
H 44.8045 40.3395 19.2869
H 44.3645 39.9342 20.8248
O -18.3401 -0.483134 41.7357
H -17.6372 -0.109327 41.1275
H -19.2063 -0.260964 41.2815
O 44.6462 41.8151 11.3901
H 45.1279 42.5712 11.8271
H 44.6239 41.9555 10.4021
O 42.4548 8.12171 11.4966
H 42.7391 8.70895 12.2705
H 43.0207 7.28643 11.5704
O 22.0925 40.849 -8.70214
H 22.0264 41.5412 -7.97828
H 21.2831 40.2557 -8.67813
O -15.1417 -18.7411 -6.76016
H -14.3875 -19.0933 -6.19575
H -15.6934 -18.0907 -6.22976
O 49.7966 14.2595 8.1978
H 49.931 14.0627 9.17459
H 49.0136 14.8778 8.10285
O 59.0695 19.7182 -2.52261
H 59.5686 20.5795 -2.44017
H 58.1561 19.8078 -2.12599
O 11.6369 53.1546 17.4084
H 11.1203 53.8487 16.8801
H 11.0611 52.361 17.5808
O -10.7464 -10.8732 60.3871
H -10.1907 -11.1287 59.586
H -10.5913 -11.5944 61.0703
O -2.87895 38.0279 49.5356
H -2.92869 37.6791 50.4663
H -2.98443 37.3106 48.8421
O 52.4839 -19.5017 34.7639
H 51.5781 -19.4407 34.3517
H 53.1398 -18.9301 34.2761
O 36.6385 16.5726 22.8869
H 37.5388 16.8738 22.5786
H 36.0433 17.3768 23.0011
O 15.7022 -22.205 55.586
H 16.5208 -21.72 55.8907
H 15.1979 -22.4868 56.417
O -8.10578 53.6274 25.5878
H -8.7487 53.4528 26.341
H -8.54203 54.2439 24.9256
O 25.5135 -13.4456 44.3323
H 25.8923 -12.7254 43.7506
H 25.9807 -13.4387 45.2191
O 62.3289 8.69897 9.60327
H 61.389 8.73911 9.94891
H 62.9373 8.51038 10.3821
O 7.97897 3.38953 4.08013
H 7.95168 4.23708 3.54308
H 7.07653 2.95823 4.08399
O -19.2712 12.6126 5.81431
H -19.9616 13.2221 5.42861
H -18.3643 13.0156 5.65274
O 51.8682 23.5191 51.7388
H 52.7443 23.1065 51.508
H 51.6657 23.4178 52.7095
O 15.3453 -20.2908 -19.4089
H 14.509 -20.7863 -19.1847
H 15.6885 -19.867 -18.583
O 53.2879 14.6499 8.02049
H 53.6728 14.7371 7.10262
H 52.2877 14.5639 7.9748
O 50.0563 42.8855 34.1068
H 50.647 43.2387 34.8327
H 49.3031 42.3526 34.4866
O 22.8959 34.5018 52.8532
H 23.6121 33.848 53.0632
H 22.2478 34.5624 53.6191
O 61.1067 1.57605 21.6172
H 60.6331 1.40459 22.4717
H 61.0759 0.758012 21.0541
O 2.26055 -0.836422 24.9128
H 3.01816 -0.337473 24.5006
H 1.55237 -0.993018 24.2381
O -20.4038 -18.5754 22.934
H -20.1715 -18.7635 21.9627
H -21.2445 -19.0829 23.1389
O 27.2951 31.4965 24.6731
H 28.2319 31.671 24.3773
H 26.6755 31.7923 23.9305
O -7.8997 61.2358 -14.3629
H -8.70089 60.9421 -13.8514
H -7.20418 61.5784 -13.7389
O 56.7952 -10.9019 33.5332
H 56.3656 -11.0273 34.427
H 56.0789 -10.8065 32.8373
O -21.532 7.48257 51.0735
H -21.4383 6.49367 50.9356
H -20.5774 7.82126 51.1009
O 63.2741 17.7871 57.8945
H -22.6716 18.4274 57.6017
H 63.1322 17.0841 57.2026
O 6.56688 -18.2867 8.98851
H 6.31156 -18.4229 9.94214
H 6.75156 -19.1978 8.58919
O 17.9684 21.2694 46.6258
H 18.6262 20.714 46.0979
H 18.3002 21.3069 47.5678
O 18.8946 31.2459 -7.58377
H 19.0808 32.0977 -8.08388
H 17.9352 31.2142 -7.33371
O -7.34745 -12.6389 -12.4569
H -8.08934 -13.2128 -12.1054
H -7.61303 -12.3039 -13.3622
O -10.3103 3.91454 2.86201
H -9.85405 3.35975 3.57997
H -10.7422 4.66404 3.40927
O 35.9746 50.2867 25.986
H 35.9758 51.257 25.7173
H 36.2914 49.7605 25.1978
O -5.71797 51.8647 34.214
H -6.40944 52.4961 33.8412
H -5.90059 50.9419 33.8563
O -8.35989 12.4347 44.5662
H -9.03224 13.0369 44.1469
H -7.94395 11.8768 43.8406
O 42.077 56.9878 -7.26253
H 41.696 56.0722 -7.49798
H 42.4245 57.3663 -8.12617
O 24.7792 23.1818 -11.2045
H 24.46 22.6812 -10.3929
H 24.8027 22.5553 -11.9871
O -19.4408 58.285 30.9796
H -19.6094 59.1539 30.5075
H -18.6531 58.4356 31.5942
O 22.48 12.7788 52.0944
H 23.2507 12.9729 52.6938
H 22.5773 13.3625 51.2834
O 34.8242 22.1127 62.5711
H 35.1715 23.0255 62.814
H 33.8594 22.1988 62.323
O 7.53368 30.0655 23.3293
H 7.53288 30.9532 23.7972
H 7.94553 29.3625 23.9177
O 57.3163 55.0731 35.8888
H 58.0717 54.4113 35.7409
H 56.9679 55.234 34.9554
O 37.2583 -6.51671 44.3281
H 38.1459 -6.06047 44.2103
H 37.4277 -7.50486 44.3765
O 15.3241 -15.8387 5.46237
H 14.542 -15.465 4.98577
H 15.2341 -15.6903 6.45054
O -4.05222 32.7162 38.0274
H -4.07419 33.6875 37.7979
H -4.81438 32.4989 38.6362
O 12.886 53.3861 9.16146
H 12.621 53.594 10.0979
H 13.7035 52.831 9.1539
O 15.8543 -6.92388 22.9078
H 15.597 -6.7443 23.862
H 15.6147 -6.11329 22.3686
O 8.65533 30.1984 61.4044
H 8.45561 29.6201 60.6141
H 8.18413 31.0742 61.3305
O 8.83215 29.9226 15.2478
H 8.56969 30.883 15.3719
H 8.68798 29.6528 14.2934
O 43.7654 -7.94877 -23.2356
H 43.9322 -8.15644 -22.265
H 44.5181 -7.40281 63.0545
O -3.0717 42.5567 52.3859
H -3.27658 42.5525 51.3996
H -3.03989 41.5929 52.6911
O 42.082 10.6294 13.4247
H 42.1261 11.5486 13.0556
H 41.3927 10.5794 14.156
O 59.6138 54.7861 25.1692
H 60.4855 55.2904 25.2085
H 59.3707 54.7438 24.1947
O 62.9052 23.8373 20.041
H -23.0574 24.5616 20.1646
H 62.2417 23.8835 20.7816
O 34.5715 -21.0823 27.8406
H 34.7039 -22.0433 28.1269
H 35.3064 -20.5319 28.2622
O 0.300021 37.5646 25.8885
H -0.559008 37.6229 26.4259
H 1.02139 37.2881 26.5208
O 17.9018 61.1611 46.6355
H 17.3709 61.063 47.4843
H 17.6222 60.4452 45.9853
O 40.715 54.4059 -7.22383
H 40.5805 53.472 -7.56108
H 40.7082 54.3516 -6.21362
O 5.36443 7.26482 1.01919
H 6.02372 8.00418 1.02945
H 5.63514 6.54512 0.373841
O 12.0757 -12.3351 18.2833
H 11.0809 -12.2039 18.2772
H 12.3049 -12.9755 19.0256
O 58.0498 36.3727 46.3
H 58.624 35.6137 46.6204
H 58.4481 37.2492 46.5821
O 39.0216 14.0571 8.66315
H 39.9617 14.1555 8.98309
H 38.601 13.2952 9.19044
O -21.0739 42.2618 16.0651
H -21.1413 42.5279 15.1017
H -21.1037 43.0891 16.6301
O 59.6968 62.0505 -12.4105
H 60.5473 62.238 -11.9101
H 59.7589 61.1169 -12.7661
O 20.9841 43.4683 44.7103
H 21.1032 42.6279 45.2591
H 21.808 44.03 44.8048
O 48.184 41.3178 21.1307
H 48.841 40.5903 20.9011
H 48.7305 42.0603 21.5388
O 10.1572 48.4067 0.719639
H 9.35962 48.3628 1.34072
H 9.91641 47.964 -0.154106
O 11.248 -13.6968 21.86
H 10.4284 -14.1884 22.1672
H 12.008 -13.9891 22.4571
O -3.1188 19.4393 5.99385
H -2.13959 19.3944 6.12376
H -3.3877 19.0979 5.0983
O 41.3682 9.04731 25.0433
H 41.5397 8.11541 25.3716
H 42.1951 9.58851 25.2
O 6.74387 19.5625 57.1219
H 7.35335 19.1705 57.8304
H 7.34798 19.8384 56.356
O -21.1364 50.3706 -16.5725
H -20.5136 50.4973 -15.8065
H -21.6401 51.2342 -16.6716
O 19.4838 18.6479 -21.7768
H 18.9223 19.2661 -22.3436
H 19.1548 17.7033 -21.9063
O -13.477 3.87602 21.9108
H -13.0735 4.17222 22.7815
H -13.4312 2.87622 21.8586
O 61.2845 42.0032 23.7772
H 60.6578 41.5168 24.3795
H 61.5358 42.8956 24.1465
O 44.6424 -20.9502 9.83877
H 44.6774 -21.2571 8.88557
H 44.2943 -21.695 10.4087
O 22.3968 -11.63 36.0457
H 22.8131 -12.295 36.6617
H 21.5289 -11.3255 36.4177
O -12.3663 62.2288 25.5789
H -12.0569 63.1612 25.8077
H -12.5226 61.779 26.4719
O 32.4137 42.6617 6.49278
H 32.5812 41.7182 6.17606
H 31.5397 42.9403 6.08273
O -5.26753 -19.2613 48.4399
H -5.08919 -19.8309 49.2423
H -6.2236 -19.3742 48.1695
O 14.8688 19.5955 17.69
H 13.9835 19.9404 17.4078
H 15.489 20.3592 17.8811
O 32.1936 61.0646 55.1651
H 32.2889 61.5279 54.2717
H 33.0963 61.0875 55.6224
O -10.3952 35.4538 15.905
H -11.1024 34.7979 16.2116
H -9.71698 35.4862 16.6515
O -17.2781 54.8032 17.7776
H -17.0083 55.0687 18.7019
H -17.2025 55.593 17.1659
O 29.9134 46.3933 -8.14237
H 29.4659 46.5971 -7.26918
H 30.1517 45.4226 -8.18558
O -11.3632 13.9544 5.76759
H -11.4201 14.7639 5.20431
H -11.6677 13.1632 5.20921
O 47.9085 15.3327 25.5751
H 47.8773 14.8472 24.6997
H 47.0679 15.8566 25.7102
O -16.2438 23.6661 39.5195
H -16.6722 23.8056 38.6207
H -15.3885 24.1672 39.5578
O 40.0974 14.437 5.93442
H 39.8361 15.3908 5.72232
H 39.371 14.078 6.5399
O 33.2707 -0.541824 46.0312
H 33.0171 -0.773383 46.9654
H 33.2599 -1.37091 45.4873
O 46.5344 -0.0590033 20.7395
H 46.8174 0.826356 21.0891
H 46.7004 -0.775673 21.427
O -12.667 1.63538 1.45718
H -11.8418 1.94276 1.9163
H -12.5319 1.6439 0.467638
O -0.106856 -14.7539 50.1278
H 0.0932436 -15.2682 49.2878
H -0.275815 -15.4228 50.8636
O -10.9246 -14.6266 -22.2897
H -10.8801 -15.5671 -22.6567
H -10.506 -14.0005 -22.9353
O 32.539 -3.43604 54.8589
H 32.8417 -4.22473 54.3248
H 31.5682 -3.54698 55.0677
O 51.9291 37.8131 -8.97436
H 51.8178 37.3898 -9.88312
H 52.0037 38.7974 -9.10474
O 34.7186 16.6395 24.7908
H 35.0755 16.125 24.0216
H 33.7561 16.4658 25.0021
O 37.8308 -18.8983 -8.76059
H 38.2489 -19.6379 -9.29567
H 36.8946 -18.7606 -9.08407
O 50.3326 37.4869 18.8129
H 51.1614 36.9456 18.9865
H 49.5303 37.01 19.2147
O 63.1478 -8.25296 59.1032
H -23.0129 -8.83304 58.4558
H 62.8814 -7.39789 58.6423
O 11.729 7.24979 54.0657
H 11.0052 6.64536 54.4207
H 11.3117 7.93379 53.4536
O 3.17262 -22.8567 14.6814
H 3.10899 62.8203 14.4548
H 4.11024 -22.6474 14.9469
O 47.7677 13.8456 -19.5102
H 48.2732 14.6887 -19.3133
H 47.1615 13.9963 -20.3096
O 39.0024 33.3496 10.6654
H 39.6132 32.6273 10.9965
H 38.35 33.593 11.3812
O 14.5663 16.5599 45.126
H 13.9562 16.2465 44.4011
H 14.1716 16.3592 46.0267
O 49.1079 -4.67885 42.4526
H 48.7947 -4.11005 43.2025
H 48.4072 -4.71159 41.7297
O 40.204 62.9981 -3.19695
H 41.1347 63.0622 -3.57802
H 40.1585 62.1963 -2.59572
O 16.8952 17.8264 6.58019
H 17.1087 16.9092 6.93347
H 16.5572 18.3838 7.3395
O 6.47519 59.0671 -11.3158
H 7.08343 58.978 -10.5188
H 6.98715 59.4063 -12.0951
O 43.5072 25.908 27.2451
H 43.8151 26.6206 26.6065
H 43.649 26.1864 28.1998
O -1.31081 14.6045 -10.5136
H -1.02138 13.704 -10.1786
H -0.496653 15.0731 -10.8643
O -17.4106 24.6616 1.99512
H -17.8504 25.4309 2.46722
H -17.2807 23.9095 2.63357
O 18.9959 -4.60589 -23.2161
H 18.6336 -5.04088 62.6073
H 19.7893 -4.05347 63.1941
O -17.7398 -16.6742 16.3542
H -17.2941 -16.7099 17.2487
H -17.0315 -16.5085 15.6671
O 15.8723 40.2689 45.3921
H 16.6225 40.7958 44.9817
H 15.2721 39.9381 44.6586
O -12.2459 -10.2494 34.9237
H -12.812 -9.82489 35.6453
H -12.7913 -10.3804 34.1062
O 33.8006 58.7083 -1.803
H 33.8966 57.7567 -1.52919
H 33.8186 59.3069 -0.999988
O 1.46229 26.1039 49.2607
H 1.64911 25.9738 50.2511
H 0.785971 26.8471 49.1539
O 26.5609 29.4209 -11.8668
H 25.6512 29.0219 -12.021
H 26.5747 29.9472 -11.0134
O 0.530786 -5.26293 56.2146
H 0.256938 -4.65831 55.473
H -0.129588 -6.01862 56.2933
O 0.801913 30.7895 47.8816
H 0.844513 30.67 46.8827
H 1.61988 31.3047 48.1605
O 32.6347 61.4879 14.5919
H 32.7034 61.8902 13.6731
H 31.8659 61.923 15.0642
O 0.529433 13.9521 24.4244
H 0.606998 13.6095 25.3644
H 0.113243 13.2282 23.8583
O 30.1239 50.7266 1.34487
H 29.559 50.0217 0.890022
H 30.3139 50.4137 2.26896
O 16.7633 -17.8841 59.7077
H 17.2451 -18.2086 60.5241
H 16.0691 -17.2244 60.0069
O 17.6888 20.3035 -23.0913
H 16.7523 20.5696 -22.8317
H 18.0846 20.9472 62.9089
O 54.8367 60.1521 8.18764
H 55.3051 59.5933 8.88846
H 54.8083 61.0881 8.55939
O 60.0645 0.0901877 -16.2559
H 59.8249 0.147692 -17.2234
H 60.8717 -0.492119 -16.1435
O -11.4804 -14.8146 -1.45635
H -11.6178 -15.8089 -1.54871
H -10.8432 -14.5152 -2.1605
O 24.0486 34.7419 50.3302
H 23.6537 34.2758 49.5403
H 23.6782 34.3247 51.1663
O 17.7558 15.5204 -21.6475
H 17.328 15.3121 -22.5383
H 17.6773 14.7001 -21.0711
O -11.6721 13.0972 49.0522
H -10.6687 13.1736 49.2004
H -11.8184 13.0031 48.061
O -21.4524 45.9833 60.51
H -21.5902 46.4495 61.3728
H -21.1208 45.0609 60.6713
O 39.7481 7.15959 -23.177
H 40.586 7.68305 63.3249
H 39.5935 6.59315 62.6544
O 13.1672 20.6115 0.700631
H 13.9551 20.8737 0.130876
H 13.5443 20.115 1.49043
O 57.6285 27.9646 -14.0287
H 57.4864 27.0321 -13.7007
H 57.8659 28.5341 -13.2428
O -12.6327 -7.76386 22.6624
H -12.7723 -6.99852 23.2947
H -11.8106 -7.62279 22.1129
O -11.6444 -19.6437 33.397
H -12.2535 -20.3484 33.0047
H -11.1757 -20.0686 34.1873
O 13.5978 -4.66477 56.4704
H 14.351 -4.43388 57.0967
H 13.8447 -5.51613 56.0026
O 11.5079 51.9316 -2.42876
H 11.329 52.2996 -1.50852
H 12.3194 52.4059 -2.77268
O 46.0117 1.26053 36.9323
H 45.1965 1.66245 37.3761
H 46.2637 0.43267 37.4473
O -15.1184 -19.7576 40.1024
H -14.6776 -19.7044 41.0035
H -14.4655 -19.4218 39.4118
O -3.95161 1.81292 52.4453
H -4.03095 0.826016 52.2928
H -3.94415 2.26902 51.5504
O -0.617695 27.4851 7.53781
H -0.280868 26.6388 7.9653
H -1.61046 27.4868 7.71079
O 38.0473 -0.051847 33.1505
H 38.9827 0.293974 33.0677
H 37.7006 -0.261511 32.236
O 24.8561 2.13849 43.0369
H 24.0671 1.72308 43.5048
H 25.3632 2.72336 43.6713
O 56.7626 -13.1764 11.7789
H 56.0788 -12.8658 12.4263
H 56.7728 -12.622 10.9435
O 16.9605 19.9092 -12.4111
H 16.6011 20.8177 -12.1945
H 16.2651 19.2169 -12.228
O 9.159 20.8842 56.2109
H 9.92948 21.4992 56.43
H 9.21217 20.6754 55.2251
O -2.12974 36.8519 6.2518
H -1.83351 35.9657 5.88668
H -1.32922 37.3683 6.53947
O -20.2266 -9.41076 -1.52237
H -19.7982 -8.51079 -1.47583
H -19.5745 -10.1243 -1.23434
O 47.3092 52.3845 54.7646
H 46.6663 52.6962 54.0696
H 47.3439 51.3785 54.7575
O 28.0231 31.1275 57.1011
H 27.4506 30.86 57.8814
H 27.4069 31.4412 56.3699
O -3.56203 55.5179 17.8061
H -3.24759 54.6089 18.0892
H -3.82939 56.0596 18.6053
O 45.501 29.1009 -13.509
H 46.1037 28.3983 -13.1354
H 45.2788 29.7815 -12.8076
O 33.0509 2.35235 31.3742
H 32.2265 2.59021 30.87
H 33.3891 3.15688 31.8711
O 44.9866 41.989 42.079
H 45.1286 42.6106 41.3014
H 44.2842 42.3493 42.681
O 48.5382 -20.2415 39.1439
H 48.3167 -20.2841 40.1246
H 48.0957 -19.4392 38.7517
O 47.8179 53.1704 58.1263
H 48.7478 53.5187 58.0062
H 47.3365 53.2708 57.2484
O 37.7483 35.6279 45.4451
H 37.5507 34.6498 45.43
H 38.6717 35.7701 45.1093
O 32.607 18.9028 29.5718
H 33.0513 18.9721 30.4697
H 31.6207 18.9503 29.6764
O 38.7288 -2.11269 1.67803
H 38.8643 -1.20659 2.04725
H 39.5604 -2.6603 1.7584
O 47.6731 -12.5194 -1.13115
H 46.8971 -12.9797 -1.59248
H 48.0647 -13.0961 -0.428878
O -12.8647 -21.2286 -15.9288
H -12.5886 -20.5933 -16.6523
H -13.704 -20.9253 -15.4774
O 45.6472 19.7125 -18.9762
H 44.8336 19.9293 -18.4348
H 45.6441 20.3294 -19.7661
O 54.2912 58.0052 18.9735
H 55.1832 58.3398 19.2753
H 53.7409 58.7868 18.6634
O 56.8012 62.3845 -8.14334
H 56.5857 63.2769 -8.55275
H 56.3014 61.6954 -8.67784
O 33.0269 30.2592 61.8966
H 32.5411 30.4125 62.754
H 32.7239 29.4038 61.4806
O -0.597264 6.49692 35.6857
H 0.0967376 6.71083 36.3816
H -0.206497 5.82364 35.056
O -5.99073 -8.32306 32.8273
H -6.30381 -9.25756 32.6234
H -6.53677 -7.9691 33.5992
O 57.2765 24.2228 28.8229
H 56.8168 24.0598 27.9575
H 56.5677 24.4203 29.5166
O 8.61995 -20.1626 31.8826
H 8.05888 -19.5937 31.2614
H 9.14719 -20.7876 31.3019
O 37.5623 8.61656 32.0618
H 37.1571 9.51366 32.1675
H 37.3193 8.02024 32.8333
O 8.40212 -3.57878 43.9314
H 9.15091 -4.07833 44.3669
H 7.73231 -3.34147 44.6417
O 1.50904 -17.9851 14.3268
H 0.583351 -18.366 14.4
H 2.11736 -18.7278 14.0407
O 38.8626 29.8136 -8.12247
H 39.1567 29.4256 -7.2481
H 39.165 30.7739 -8.20965
O -16.2919 7.38345 44.719
H -16.5063 7.82055 43.8459
H -15.3043 7.24895 44.8255
O 33.1535 -22.2601 25.2746
H 33.594 -21.4801 25.7632
H 32.748 -22.8422 25.9964
O 31.3639 15.9907 49.3783
H 32.1834 15.8798 49.959
H 30.8218 16.7495 49.7452
O 52.6694 -9.48756 59.6739
H 53.4671 -9.43144 60.2754
H 52.1372 -8.63861 59.7179
O 53.3287 26.0955 43.5309
H 53.5941 26.3505 44.4633
H 54.1394 25.9073 42.9854
O 30.8827 54.5919 -14.531
H 30.8782 53.6032 -14.6732
H 31.3995 55.0591 -15.2458
O 35.2252 -6.77275 -12.0439
H 35.0836 -6.68344 -13.0314
H 36.0159 -7.3529 -11.8784
O 38.5261 25.7902 12.9621
H 39.5163 25.8729 12.8897
H 38.2293 26.1226 13.8625
O 46.7053 38.6291 27.3454
H 47.0698 38.5811 28.2806
H 47.4402 39.0575 26.7961
O 30.4808 31.232 15.6889
H 30.6486 31.866 16.4459
H 30.4692 31.7182 14.8122
O 7.25818 34.3436 33.0888
H 6.93747 35.2659 32.8369
H 6.48311 33.8783 33.5392
O 29.5643 56.5082 -2.65972
H 29.3765 56.0694 -3.53551
H 28.9267 57.2626 -2.50285
O 14.5291 6.45466 23.6473
H 14.7061 7.40723 23.9091
H 13.6676 6.44694 23.1331
O 37.3938 -17.7918 62.7053
H 37.7969 -18.2329 61.8981
H 36.3957 -17.7353 62.5856
O 43.5997 23.9143 23.7876
H 44.4929 23.7452 24.2232
H 42.8926 23.6538 24.4582
O -18.965 55.8857 14.0507
H -18.8859 55.0423 14.6139
H -19.1177 56.6339 14.7043
O 6.44441 20.0402 10.9301
H 6.33157 21.0342 10.8819
H 5.69705 19.6258 10.4054
O -8.62176 -16.3585 5.97904
H -8.73967 -16.0566 5.02746
H -8.4662 -17.3386 6.00821
O -5.31786 -0.245423 55.179
H -5.83142 0.565781 54.8767
H -5.014 -0.0332513 56.1194
O 41.0987 -22.5616 28.1768
H 40.4207 -23.2481 27.8901
H 41.221 -22.6142 29.1686
O 7.07162 27.7652 -5.84701
H 6.97613 27.6978 -4.85153
H 8.01469 27.5831 -6.11872
O 42.1553 40.1686 -15.8109
H 42.6069 39.2997 -16.0167
H 42.8165 40.9139 -15.8772
O 10.2647 8.51508 28.377
H 9.78305 9.37416 28.2048
H 9.69107 7.91818 28.9434
O 30.1863 34.8592 13.6333
H 30.8032 35.4868 14.1003
H 30.2087 35.0154 12.6461
O 7.65567 7.28118 -18.5953
H 8.39825 6.60808 -18.588
H 8.02307 8.19473 -18.4596
O 11.0775 37.8796 -21.4524
H 11.552 38.7159 -21.6861
H 11.6616 37.2722 -20.9225
O 41.0863 28.478 23.6785
H 41.0498 29.4506 23.9084
H 41.034 28.3521 22.6904
O 43.1236 -15.181 11.4338
H 42.8376 -16.1428 11.5157
H 43.5493 -14.8993 12.2945
O 17.3042 -19.6943 4.8301
H 17.9955 -19.0759 5.22683
H 16.8515 -20.2015 5.56738
O 28.1844 34.2101 -17.3184
H 28.0248 33.8153 -18.223
H 29.0049 33.8067 -16.912
O -16.7352 50.2817 9.83494
H -17.1286 49.381 9.96716
H -16.7214 50.7794 10.7061
O 53.116 48.0926 20.4526
H 53.4679 48.2456 21.379
H 52.7374 48.9521 20.1005
O 23.9297 6.96035 13.0468
H 23.9505 6.6822 14.0055
H 24.1767 7.92175 12.9445
O 41.4207 4.20796 13.0468
H 40.4811 4.44364 12.804
H 41.5533 3.21889 12.9897
O 54.9646 -22.92 -17.7201
H 54.9513 -22.7932 -16.7381
H 55.784 63.2167 -17.9871
O 28.3237 -12.8385 8.45792
H 29.3221 -12.7314 8.42096
H 28.0867 -13.2074 9.36469
O -12.1679 47.7545 -8.34922
H -13.0404 47.2738 -8.26981
H -12.2677 48.5785 -8.90205
O 47.805 42.2408 -0.0185048
H 47.0433 42.2188 0.635776
H 47.5523 42.8106 -0.791943
O 12.9427 37.0485 0.268081
H 12.0055 36.7262 0.43947
H 13.551 36.2663 0.452685
O 7.62062 -15.7081 38.6055
H 6.84942 -15.0832 38.726
H 8.06822 -15.5009 37.7301
O 21.8008 47.2605 44.8734
H 22.1621 48.1147 45.262
H 21.1787 47.487 44.123
O 42.5253 58.9128 12.7973
H 42.2101 59.6184 12.1499
H 42.2092 58.0367 12.4246
O 41.7133 12.2065 0.381377
H 42.2328 12.7314 -0.28769
H 41.597 12.738 1.21017
O 36.9315 25.7021 53.1115
H 35.995 25.9937 52.924
H 37.3605 25.3323 52.2889
O 19.1845 27.9199 10.5446
H 19.7757 28.6305 10.173
H 19.6711 27.3766 11.2208
750
Atoms. Timestep: 35230
O -10.31 17.0488 24.3619
H -10.0784 17.8787 24.8657
H -11.1199 16.596 24.7223
O -5.50273 -11.6029 13.8372
H -6.426 -11.2619 14.0593
H -5.18454 -11.1424 13.0128
O 24.4743 50.9849 37.2949
H 24.597 49.99 37.3183
H 24.8092 51.3141 36.3977
O 58.4671 53.9793 32.9234
H 57.6098 53.6042 32.5707
H 59.2248 53.5515 32.4355
O 49.6803 53.8231 -13.7901
H 49.6306 54.4274 -14.5835
H 50.6453 53.5739 -13.6537
O -7.95976 16.6307 26.1096
H -8.46635 17.0347 26.8653
H -8.4778 15.8721 25.7275
O 62.8635 11.7979 23.6576
H 62.6198 10.8232 23.7613
H 62.7029 12.2303 24.551
O 17.0853 62.6659 53.4877
H 17.5786 62.7659 54.3602
H 16.3248 -23.2839 53.5269
O 19.7838 13.077 56.4765
H 19.6703 12.4247 55.7258
H 20.3532 13.8357 56.1476
O 41.5076 4.23984 -7.3828
H 40.6769 4.80065 -7.40066
H 41.3462 3.53251 -8.07861
O 18.3265 46.5391 4.76711
H 17.3325 46.6529 4.69528
H 18.6721 47.2848 5.35181
O 26.4205 -3.03197 5.007
H 25.7657 -3.67721 4.59734
H 25.989 -2.12304 4.97758
O 39.8701 8.29438 12.7703
H 40.408 7.53285 12.3394
H 40.3947 8.56943 13.5753
O 30.3021 -6.98664 15.9727
H 31.257 -7.20934 15.7819
H 29.8011 -6.96422 15.1139
O 36.1396 51.4196 48.6893
H 36.8931 50.9955 48.1774
H 35.2702 51.018 48.3848
O 20.1413 -13.3346 -7.64833
H 19.5931 -12.7088 -8.20994
H 19.6192 -13.6621 -6.86725
O 16.1207 26.3138 -11.7011
H 16.9704 25.8319 -11.4853
H 16.1234 27.1876 -11.2144
O -16.5721 37.741 61.4301
H -15.7923 38.1869 61.8695
H -17.3354 37.6824 62.0659
O 0.652132 10.8047 23.1591
H 1.61037 10.6037 22.9955
H 0.0409643 10.2278 22.6496
O -2.48161 23.5538 46.6376
H -2.06386 22.6481 46.4569
H -2.41681 24.1246 45.8125
O 51.4698 38.7835 -1.52695
H 51.6974 39.4849 -2.19696
H 50.5819 39.0357 -1.14512
O 58.0108 9.3925 41.7818
H 57.3335 8.76667 42.1849
H 57.8462 10.3077 42.1819
O 51.4758 53.842 53.3181
H 51.8852 53.6243 52.4305
H 52.0989 53.6661 54.0822
O 57.9802 39.2475 -3.10673
H 57.4539 38.4159 -2.92591
H 57.4323 40.0323 -2.81127
O 44.0594 39.9424 19.7666
H 44.7451 40.6091 19.438
H 44.2626 39.8077 20.7405
O -18.3221 -0.503182 41.7027
H -17.5872 0.148643 41.4747
H -19.2055 -0.0559087 41.5062
O 44.6534 41.802 11.3738
H 44.9982 42.6816 11.7151
H 44.6503 41.8246 10.3712
O 42.4647 8.14588 11.605
H 42.6994 8.88667 12.2482
H 43.3309 7.77662 11.2397
O 22.1042 40.895 -8.6422
H 22.0258 41.6794 -8.02983
H 21.335 40.2783 -8.49014
O -15.0971 -18.683 -6.72578
H -14.4163 -18.9744 -6.07251
H -15.7263 -18.0472 -6.27561
O 49.869 14.2189 8.18706
H 49.7602 13.9202 9.14481
H 48.983 14.6121 7.92118
O 59.0563 19.6919 -2.52561
H 59.5459 20.5667 -2.56482
H 58.1369 19.8551 -2.1728
O 11.6486 53.1187 17.4136
H 11.0166 53.8276 17.1352
H 11.2083 52.2211 17.3391
O -10.6547 -10.8587 60.4128
H -10.3915 -11.171 59.4974
H -10.8371 -11.6623 60.9866
O -2.87685 37.9504 49.439
H -2.99239 37.7601 50.4196
H -3.16346 37.1045 48.9732
O 52.5069 -19.4691 34.7504
H 51.5834 -19.2787 34.4153
H 53.1709 -19.0341 34.1388
O 36.6543 16.5523 22.8211
H 37.6358 16.7365 22.7663
H 36.2192 17.4232 23.1122
O 15.6695 -22.1222 55.6378
H 16.5549 -21.6941 55.8098
H 15.1727 -22.2132 56.5047
O -8.06591 53.6704 25.5448
H -8.40962 53.1661 26.3438
H -8.8471 54.1156 25.0996
O 25.5083 -13.441 44.3604
H 26.2294 -12.7856 44.1067
H 25.5284 -13.6009 45.3496
O 62.3698 8.70943 9.66343
H 61.4182 8.68029 9.96609
H 62.9812 8.44086 10.4011
O 7.96846 3.43515 4.06726
H 7.97815 4.33706 3.6366
H 7.03484 3.08194 4.04299
O -19.2459 12.5875 5.84897
H -20.0509 13.0765 5.51326
H -18.4451 13.1858 5.8181
O 51.821 23.5153 51.7208
H 52.5708 22.8857 51.5013
H 51.7681 23.6343 52.7153
O 15.3487 -20.2625 -19.446
H 14.6073 -20.9238 -19.2702
H 15.5064 -19.6749 -18.6407
O 53.2141 14.643 8.03563
H 53.3512 14.2926 7.10256
H 52.264 14.9711 8.11454
O 50.1023 42.8698 34.1328
H 50.7969 43.0104 34.8427
H 49.2367 42.6266 34.5744
O 22.9153 34.4879 52.8338
H 23.633 33.9327 53.2593
H 22.2387 34.7006 53.5574
O 61.101 1.56034 21.6004
H 60.4205 1.45056 22.3387
H 60.9713 0.813184 20.938
O 2.30831 -0.819477 24.931
H 2.9732 -0.318433 24.363
H 1.52676 -1.11706 24.3806
O -20.4007 -18.54 22.8711
H -20.0266 -19.0122 22.071
H -21.0893 -19.1354 23.2724
O 27.3182 31.558 24.6712
H 28.1535 31.5596 24.1027
H 26.5331 31.6018 24.0609
O -7.89664 61.282 -14.3557
H -8.69989 61.0372 -13.8014
H -7.18167 61.6475 -13.7529
O 56.7736 -10.8645 33.5428
H 56.1851 -11.1142 34.3144
H 56.2391 -11 32.6997
O -21.5642 7.52876 50.995
H -21.7057 6.5469 51.0432
H -20.6166 7.80651 51.1185
O 63.2663 17.7796 57.8871
H -22.7745 18.4182 57.3636
H 63.0131 17.0183 57.2913
O 6.62925 -18.232 9.02447
H 6.18108 -18.471 9.87881
H 6.74495 -19.0407 8.444
O 17.9628 21.2577 46.6002
H 18.5844 20.7758 45.987
H 18.2269 21.1451 47.5508
O 18.8842 31.2285 -7.60641
H 18.9139 32.1413 -8.0092
H 18.0056 31.1157 -7.11701
O -7.32836 -12.6048 -12.4643
H -8.03699 -13.221 -12.1267
H -7.53377 -12.3122 -13.398
O -10.3778 3.88013 2.90929
H -9.6984 3.63391 3.60879
H -10.306 4.89474 2.83416
O 35.9793 50.2538 25.9679
H 36.0089 51.1278 25.4817
H 36.0132 49.49 25.3182
O -5.70989 51.8484 34.1862
H -6.57173 52.3419 34.1279
H -5.73573 51.0172 33.6424
O -8.36243 12.3915 44.5566
H -8.79582 13.2259 44.1912
H -7.86199 11.9541 43.8031
O 42.052 57.0022 -7.24527
H 42.1136 56.0565 -7.56973
H 42.4818 57.6491 -7.86986
O 24.7403 23.1644 -11.2094
H 24.3281 22.8093 -10.3721
H 24.6907 22.4821 -11.9289
O -19.3735 58.3157 30.9595
H -19.6835 59.1833 30.5555
H -19.1416 58.5288 31.9214
O 22.4312 12.8239 52.0642
H 23.2102 12.7941 52.7164
H 22.8146 13.0933 51.1724
O 34.7856 22.1056 62.5469
H 35.3468 22.9256 62.4755
H 33.8191 22.3202 62.3972
O 7.51088 30.0876 23.292
H 7.81343 30.8868 23.8113
H 7.79959 29.2628 23.7707
O 57.244 55.043 35.9019
H 57.9117 54.375 35.5604
H 57.304 55.8789 35.3233
O 37.2757 -6.46081 44.3389
H 38.2442 -6.25175 44.209
H 37.0547 -7.33447 43.8828
O 15.3395 -15.8199 5.46024
H 14.4348 -15.7892 5.0191
H 15.2106 -15.6848 6.44779
O -4.022 32.6628 38.0566
H -4.06901 33.6145 37.7286
H -4.88026 32.4181 38.4913
O 12.8693 53.3419 9.2062
H 12.7064 53.7114 10.1288
H 13.8464 53.0568 9.17327
O 15.8205 -6.85896 22.8729
H 15.7174 -6.88261 23.8647
H 15.7606 -5.92122 22.5285
O 8.67376 30.203 61.405
H 8.33286 29.6614 60.6328
H 8.3137 31.136 61.3322
O 8.76191 29.9371 15.2196
H 8.46729 30.8771 15.3737
H 9.01364 29.8399 14.253
O 43.7372 -7.94114 -23.2006
H 44.027 -8.37959 -22.346
H 44.535 -7.45963 63.0497
O -3.10148 42.5863 52.4375
H -3.5364 42.8682 51.5725
H -3.39531 41.6486 52.6094
O 42.0888 10.5796 13.4239
H 41.8263 11.5108 13.135
H 41.4823 10.3503 14.1951
O 59.5684 54.8275 25.1843
H 60.5811 54.8326 25.1712
H 59.2917 54.4281 24.2958
O 62.8767 23.8537 20.0133
H -22.9206 24.3885 20.2314
H 62.3057 23.8222 20.8378
O 34.4782 -21.1251 27.7851
H 34.5668 -22.0053 28.2421
H 35.137 -20.4887 28.1642
O 0.328153 37.5086 25.9054
H -0.308244 38.1683 26.29
H 1.02387 37.2777 26.6046
O 17.917 61.1233 46.6307
H 17.4706 61.1816 47.5203
H 17.6186 60.2901 46.1753
O 40.7078 54.372 -7.21555
H 40.4585 53.5888 -7.79624
H 40.2619 54.2392 -6.32265
O 5.40863 7.18231 1.04002
H 6.11087 7.89614 0.909428
H 5.56913 6.48547 0.340338
O 12.1113 -12.3382 18.2771
H 11.1213 -12.3952 18.2293
H 12.4318 -12.9815 18.9768
O 58.0229 36.3885 46.3026
H 58.5133 35.5877 46.6414
H 58.3997 37.1975 46.751
O 39.0541 14.0816 8.63698
H 40.0222 13.9037 8.83551
H 38.5715 13.2195 8.82989
O -21.0455 42.2791 16.0796
H -21.0283 42.6377 15.1471
H -21.4003 42.9659 16.7121
O 59.6497 62.0074 -12.3962
H 60.3092 62.3225 -11.7046
H 59.7257 61.0083 -12.4667
O 20.9807 43.5118 44.6891
H 20.8222 42.8037 45.367
H 21.8413 43.9873 44.8829
O 48.2107 41.2011 21.1133
H 49.0191 40.6134 21.1943
H 48.3764 42.0816 21.5594
O 10.1428 48.3794 0.698941
H 9.27561 48.5383 1.16248
H 9.93449 48.116 -0.2349
O 11.2141 -13.6241 21.898
H 10.4867 -14.2604 22.1258
H 12.0736 -13.9314 22.3199
O -3.12267 19.4682 5.94462
H -2.20136 19.1175 6.11878
H -3.42166 19.2158 5.01728
O 41.3737 8.98583 25.0459
H 41.5581 8.2841 25.7501
H 41.9072 9.79697 25.3292
O 6.75393 19.609 57.0841
H 7.41362 19.1387 57.6705
H 7.29622 20.3387 56.6323
O -21.1337 50.3117 -16.5154
H -20.4326 50.4142 -15.7925
H -21.7649 51.075 -16.5356
O 19.5617 18.5923 -21.8601
H 18.9547 19.3212 -22.241
H 19.0152 17.7597 -21.9944
O -13.4345 3.90757 21.943
H -13.3299 4.46671 22.7606
H -13.1584 2.96367 22.1185
O 61.2172 42.0316 23.7467
H 60.5361 41.4291 24.1835
H 61.2054 42.898 24.2464
O 44.6432 -20.9362 9.8223
H 44.6898 -21.429 8.95256
H 44.6102 -21.6014 10.5742
O 22.4085 -11.6347 36.0999
H 23.0149 -12.0892 36.7593
H 21.4547 -11.6568 36.4246
O -12.3642 62.2419 25.5819
H -11.8119 63.0815 25.5166
H -12.0846 61.7541 26.4083
O 32.3686 42.6591 6.51316
H 32.7986 41.9739 5.93822
H 31.4893 42.9707 6.16351
O -5.25395 -19.2634 48.4359
H -4.95076 -19.8801 49.1571
H -6.25255 -19.3089 48.3322
O 14.8829 19.6155 17.6795
H 13.9859 19.9319 17.3392
H 15.4739 20.4149 17.8004
O 32.1913 61.0845 55.1564
H 32.7379 61.3364 54.356
H 32.8063 60.7036 55.8474
O -10.3563 35.3816 15.9112
H -11.2747 35.1324 16.2424
H -9.83904 35.706 16.7018
O -17.2684 54.7652 17.8112
H -17.259 55.1342 18.7388
H -16.9005 55.4201 17.1496
O 29.9277 46.4033 -8.08083
H 29.2594 46.5141 -7.34756
H 30.2399 45.4529 -8.1043
O -11.4591 13.9343 5.74006
H -11.6353 14.6827 5.10297
H -11.3996 13.0408 5.30948
O 47.9178 15.3079 25.5253
H 47.6675 14.7064 24.7713
H 47.1927 15.9753 25.6977
O -16.2402 23.6772 39.4971
H -16.6993 23.3895 38.6542
H -15.4439 24.2534 39.2604
O 40.0932 14.4089 6.03694
H 39.7786 15.2705 5.66119
H 39.4063 14.0805 6.70392
O 33.2934 -0.545706 46.0038
H 32.8095 -0.707317 46.8752
H 33.4439 -1.42219 45.5237
O 46.5655 -0.0915699 20.8401
H 46.9279 0.819665 21.0506
H 46.8784 -0.725448 21.5451
O -12.6307 1.61358 1.47674
H -11.8477 1.84402 2.08111
H -12.4232 2.05977 0.590713
O -0.0579618 -14.7977 50.0891
H -0.347876 -15.2078 49.2242
H -0.209755 -15.443 50.8335
O -10.9419 -14.6162 -22.289
H -11.0794 -15.4562 -22.8116
H -10.5438 -13.9081 -22.8698
O 32.5225 -3.49061 54.8255
H 32.8039 -4.31525 54.3176
H 31.5436 -3.33312 54.6866
O 51.8472 37.8074 -8.97808
H 51.6982 37.2376 -9.77949
H 51.7794 38.7803 -9.21147
O 34.6954 16.7447 24.8307
H 35.0646 15.9139 24.3648
H 33.7123 16.591 24.9101
O 37.8119 -18.9755 -8.74039
H 38.2921 -19.5015 -9.45627