lammps testing 2 water molecules

3 atoms
2 bonds
1 angles

2 atom types
1 bond types
1 angle types

-10.0 10.0 xlo xhi
-10.0 10.0 ylo yhi
-10.0 10.0 zlo zhi

Masses

1 15.999
2 1.008

Atoms
#Atom_ID Group_ID Atom_type Charge X Y Z
1 1 1 -0.8068 0 0 0 
2 1 2 0.4034 0 0 -1
3 1 2 0.4034 1 0 0

Bonds
# bond_ID Bond_type Atom_A Atom_B
1 1 1 2
2 1 1 3

Angles

1 1 2 1 3
